 Entering Link 1 = C:\G09W\l1.exe PID=      9888.
  
 Copyright (c) 1988,1990,1992,1993,1995,1998,2003,2009,2010,
            Gaussian, Inc.  All Rights Reserved.
  
 This is part of the Gaussian(R) 09 program.  It is based on
 the Gaussian(R) 03 system (copyright 2003, Gaussian, Inc.),
 the Gaussian(R) 98 system (copyright 1998, Gaussian, Inc.),
 the Gaussian(R) 94 system (copyright 1995, Gaussian, Inc.),
 the Gaussian 92(TM) system (copyright 1992, Gaussian, Inc.),
 the Gaussian 90(TM) system (copyright 1990, Gaussian, Inc.),
 the Gaussian 88(TM) system (copyright 1988, Gaussian, Inc.),
 the Gaussian 86(TM) system (copyright 1986, Carnegie Mellon
 University), and the Gaussian 82(TM) system (copyright 1983,
 Carnegie Mellon University). Gaussian is a federally registered
 trademark of Gaussian, Inc.
  
 This software contains proprietary and confidential information,
 including trade secrets, belonging to Gaussian, Inc.
  
 This software is provided under written license and may be
 used, copied, transmitted, or stored only in accord with that
 written license.
  
 The following legend is applicable only to US Government
 contracts under FAR:
  
                    RESTRICTED RIGHTS LEGEND
  
 Use, reproduction and disclosure by the US Government is
 subject to restrictions as set forth in subparagraphs (a)
 and (c) of the Commercial Computer Software - Restricted
 Rights clause in FAR 52.227-19.
  
 Gaussian, Inc.
 340 Quinnipiac St., Bldg. 40, Wallingford CT 06492
  
  
 ---------------------------------------------------------------
 Warning -- This program may not be used in any manner that
 competes with the business of Gaussian, Inc. or will provide
 assistance to any competitor of Gaussian, Inc.  The licensee
 of this program is prohibited from giving any competitor of
 Gaussian, Inc. access to this program.  By using this program,
 the user acknowledges that Gaussian, Inc. is engaged in the
 business of creating and licensing software in the field of
 computational chemistry and represents and warrants to the
 licensee that it is not a competitor of Gaussian, Inc. and that
 it will not use this program in any manner prohibited above.
 ---------------------------------------------------------------
  

 Cite this work as:
 Gaussian 09, Revision B.01,
 M. J. Frisch, G. W. Trucks, H. B. Schlegel, G. E. Scuseria, 
 M. A. Robb, J. R. Cheeseman, G. Scalmani, V. Barone, B. Mennucci, 
 G. A. Petersson, H. Nakatsuji, M. Caricato, X. Li, H. P. Hratchian, 
 A. F. Izmaylov, J. Bloino, G. Zheng, J. L. Sonnenberg, M. Hada, 
 M. Ehara, K. Toyota, R. Fukuda, J. Hasegawa, M. Ishida, T. Nakajima, 
 Y. Honda, O. Kitao, H. Nakai, T. Vreven, J. A. Montgomery, Jr., 
 J. E. Peralta, F. Ogliaro, M. Bearpark, J. J. Heyd, E. Brothers, 
 K. N. Kudin, V. N. Staroverov, T. Keith, R. Kobayashi, J. Normand, 
 K. Raghavachari, A. Rendell, J. C. Burant, S. S. Iyengar, J. Tomasi, 
 M. Cossi, N. Rega, J. M. Millam, M. Klene, J. E. Knox, J. B. Cross, 
 V. Bakken, C. Adamo, J. Jaramillo, R. Gomperts, R. E. Stratmann, 
 O. Yazyev, A. J. Austin, R. Cammi, C. Pomelli, J. W. Ochterski, 
 R. L. Martin, K. Morokuma, V. G. Zakrzewski, G. A. Voth, 
 P. Salvador, J. J. Dannenberg, S. Dapprich, A. D. Daniels, 
 O. Farkas, J. B. Foresman, J. V. Ortiz, J. Cioslowski, 
 and D. J. Fox, Gaussian, Inc., Wallingford CT, 2010.
 
 ******************************************
 Gaussian 09:  IA32W-G09RevB.01 12-Aug-2010
                05-Apr-2023 
 ******************************************
 ----------
 # pm6 scan
 ----------
 1/38=1,60=1/1,8;
 2/12=2,17=6,18=5,29=3,40=1/2;
 3/5=2,16=1,25=1,41=3900000/1,2,3;
 4/35=1/1;
 5/5=2,35=1,38=5/2;
 6/7=2,8=2,9=2,10=2,18=1,28=1/1;
 1/60=1/8(1);
 99/9=1/99;
 2/29=3/2;
 3/5=2,16=1,25=1,41=3900000,135=20/1,2,3;
 4/5=5,16=3,35=1/1;
 5/5=2,35=1,38=5/2;
 1/60=1/8(-4);
 99/9=1/99;
 ----------------------
 C2H4Cl2 Dihedral Angle
 ----------------------
 Symbolic Z-matrix:
 Charge =  0 Multiplicity = 1
 C
 C                    1    R1
 H                    1    R2       2    A
 H                    1    R2       2    A        3    D1       0
 Cl                   1    R3       2    A        3    -D1      0
 H                    2    R2       1    A        3    D2       0
 H                    2    R2       1    A        4    D2       0
 Cl                   2    R3       1    A        5    D2       0
       Variables:
  R1                    1.514                    
  R2                    1.109                    
  R3                    1.79                     
  A                   109.5                      
  D1                  120.                       
  D2                    0.     Scan 36   10.     
 
 Scan the potential surface.
 Variable   Value     No. Steps Step-Size
 -------- ----------- --------- ---------
     6       0.000000      36     10.0000
 A total of     37 points will be computed.
 ---------------------------------------------------------------------------------------------------
                            Z-MATRIX (ANGSTROMS AND DEGREES)
   CD    Cent   Atom    N1       Length/X        N2       Alpha/Y        N3        Beta/Z          J
 ---------------------------------------------------------------------------------------------------
      1      1  C 
      2      2  C        1   1.514000(     1)
      3      3  H        1   1.109000(     2)      2  109.500(     8)
      4      4  H        1   1.109000(     3)      2  109.500(     9)      3  120.000(    14)      0
      5      5  Cl       1   1.790000(     4)      2  109.500(    10)      3 -120.000(    15)      0
      6      6  H        2   1.109000(     5)      1  109.500(    11)      3    0.000(    16)      0
      7      7  H        2   1.109000(     6)      1  109.500(    12)      4    0.000(    17)      0
      8      8  Cl       2   1.790000(     7)      1  109.500(    13)      5    0.000(    18)      0
 ---------------------------------------------------------------------------------------------------
                         Z-Matrix orientation:                         
 ---------------------------------------------------------------------
 Center     Atomic      Atomic             Coordinates (Angstroms)
 Number     Number       Type             X           Y           Z
 ---------------------------------------------------------------------
      1          6           0        0.000000    0.000000    0.000000
      2          6           0        0.000000    0.000000    1.514000
      3          1           0        1.045389    0.000000   -0.370192
      4          1           0       -0.522695   -0.905334   -0.370192
      5         17           0       -0.843664    1.461269   -0.597514
      6          1           0        1.045389    0.000000    1.884192
      7          1           0       -0.522695   -0.905334    1.884192
      8         17           0       -0.843664    1.461269    2.111514
 ---------------------------------------------------------------------
                    Distance matrix (angstroms):
                    1          2          3          4          5
     1  C    0.000000
     2  C    1.514000   0.000000
     3  H    1.109000   2.154766   0.000000
     4  H    1.109000   2.154766   1.810668   0.000000
     5  Cl   1.790000   2.702882   2.399064   2.399064   0.000000
     6  H    2.154766   1.109000   2.254384   2.891498   3.444226
     7  H    2.154766   1.109000   2.891498   2.254384   3.444226
     8  Cl   2.702882   1.790000   3.444226   3.444226   2.709029
                    6          7          8
     6  H    0.000000
     7  H    1.810668   0.000000
     8  Cl   2.399064   2.399064   0.000000
 Stoichiometry    C2H4Cl2
 Framework group  C2V[SGV(C2Cl2),X(H4)]
 Deg. of freedom     6
 Full point group                 C2V     NOp   4
 Largest Abelian subgroup         C2V     NOp   4
 Largest concise Abelian subgroup C2V     NOp   4
                         Standard orientation:                         
 ---------------------------------------------------------------------
 Center     Atomic      Atomic             Coordinates (Angstroms)
 Number     Number       Type             X           Y           Z
 ---------------------------------------------------------------------
      1          6           0        0.000000    0.757000    1.105568
      2          6           0        0.000000   -0.757000    1.105568
      3          1           0       -0.905334    1.127192    1.628262
      4          1           0        0.905334    1.127192    1.628262
      5         17           0        0.000000    1.354514   -0.581761
      6          1           0       -0.905334   -1.127192    1.628262
      7          1           0        0.905334   -1.127192    1.628262
      8         17           0        0.000000   -1.354514   -0.581761
 ---------------------------------------------------------------------
 Rotational constants (GHZ):      7.6100986      3.3581184      2.4031868
 Standard basis: VSTO-6G (5D, 7F)
 There are    10 symmetry adapted basis functions of A1  symmetry.
 There are     5 symmetry adapted basis functions of A2  symmetry.
 There are     5 symmetry adapted basis functions of B1  symmetry.
 There are    10 symmetry adapted basis functions of B2  symmetry.
 Integral buffers will be    262144 words long.
 Regular integral format.
 Two-electron integral symmetry is turned off.
    30 basis functions,   192 primitive gaussians,    32 cartesian basis functions
    13 alpha electrons       13 beta electrons
       nuclear repulsion energy        88.0582167204 Hartrees.
 Do NDO integrals.
 One-electron integrals computed using PRISM.
 NBasis=    30 RedAO= F  NBF=    10     5     5    10
 NBsUse=    30 1.00D-04 NBFU=    10     5     5    10
 Nonelectrostatic core Hamiltonian diagonalized for initial guess.
 Initial guess orbital symmetries:
       Occupied  (A1) (B2) (B1) (A1) (B2) (A2) (A1) (A1) (B2) (A1)
                 (B1) (A2) (B2)
       Virtual   (A1) (B2) (B1) (A2) (B2) (A1) (B2) (B1) (A1) (A1)
                 (B1) (A1) (A2) (B2) (B2) (B2) (A2)
 The electronic state of the initial guess is 1-A1.
 Requested convergence on RMS density matrix=1.00D-08 within 128 cycles.
 Requested convergence on MAX density matrix=1.00D-06.
 Requested convergence on             energy=1.00D-06.
 No special actions if energy rises.
 Overlap will be assumed to be unity.
 Keep J ints in memory in canonical form, NReq=903229.
 Fock symm off for IB=2 I1=    1 I=   11 J=    5 Cut=1.00D-07 Err=3.99D-03
 Fock matrix is not symmetric: symmetry in diagonalization turned off.
 SCF Done:  E(RPM6) = -0.321578327136E-01 A.U. after   14 cycles
             Convg  =    0.9053D-08             -V/T =  0.9973

 **********************************************************************

            Population analysis using the SCF density.

 **********************************************************************

 Orbital symmetries:
       Occupied  (A1) (B2) (A1) (B2) (B1) (A1) (A1) (A2) (B2) (A1)
                 (B1) (A2) (B2)
       Virtual   (A1) (B2) (B2) (B1) (A2) (A1) (B2) (A1) (B1) (A1)
                 (B1) (A1) (A2) (B2) (B2) (B2) (A2)
 The electronic state is 1-A1.
 Alpha  occ. eigenvalues --   -1.06071  -0.96273  -0.92208  -0.79735  -0.62592
 Alpha  occ. eigenvalues --   -0.60292  -0.54895  -0.50741  -0.49043  -0.41981
 Alpha  occ. eigenvalues --   -0.40386  -0.38481  -0.36865
 Alpha virt. eigenvalues --    0.00840   0.03750   0.10793   0.15669   0.17946
 Alpha virt. eigenvalues --    0.17953   0.18494   3.23119   3.23967   3.24590
 Alpha virt. eigenvalues --    3.25297   3.26284   3.27497   3.27601   3.29863
 Alpha virt. eigenvalues --    3.30960   3.32126
          Condensed to atoms (all electrons):
              1          2          3          4          5          6
     1  C    4.207089   0.000000   0.000000   0.000000   0.000000   0.000000
     2  C    0.000000   4.207089   0.000000   0.000000   0.000000   0.000000
     3  H    0.000000   0.000000   0.837608   0.000000   0.000000   0.000000
     4  H    0.000000   0.000000   0.000000   0.837608   0.000000   0.000000
     5  Cl   0.000000   0.000000   0.000000   0.000000   7.117696   0.000000
     6  H    0.000000   0.000000   0.000000   0.000000   0.000000   0.837608
     7  H    0.000000   0.000000   0.000000   0.000000   0.000000   0.000000
     8  Cl   0.000000   0.000000   0.000000   0.000000   0.000000   0.000000
              7          8
     1  C    0.000000   0.000000
     2  C    0.000000   0.000000
     3  H    0.000000   0.000000
     4  H    0.000000   0.000000
     5  Cl   0.000000   0.000000
     6  H    0.000000   0.000000
     7  H    0.837608   0.000000
     8  Cl   0.000000   7.117696
 Mulliken atomic charges:
              1
     1  C   -0.207089
     2  C   -0.207089
     3  H    0.162392
     4  H    0.162392
     5  Cl  -0.117696
     6  H    0.162392
     7  H    0.162392
     8  Cl  -0.117696
 Sum of Mulliken atomic charges =   0.00000
 Mulliken charges with hydrogens summed into heavy atoms:
              1
     1  C    0.117696
     2  C    0.117696
     5  Cl  -0.117696
     8  Cl  -0.117696
 Sum of Mulliken charges with hydrogens summed into heavy atoms =   0.00000
 Charge=              0.0000 electrons
 Dipole moment (field-independent basis, Debye):
    X=              0.0000    Y=              0.0000    Z=              3.2778  Tot=              3.2778
 N-N= 8.805821672040D+01 E-N=-1.480957391699D+02  KE=-1.189375092293D+01
 Variable Step   Value    
 -------- ---- -----------
     6       1    0.174533
 ---------------------------------------------------------------------------------------------------
                            Z-MATRIX (ANGSTROMS AND DEGREES)
   CD    Cent   Atom    N1       Length/X        N2       Alpha/Y        N3        Beta/Z          J
 ---------------------------------------------------------------------------------------------------
      1      1  C 
      2      2  C        1   1.514000(     1)
      3      3  H        1   1.109000(     2)      2  109.500(     8)
      4      4  H        1   1.109000(     3)      2  109.500(     9)      3  120.000(    14)      0
      5      5  Cl       1   1.790000(     4)      2  109.500(    10)      3 -120.000(    15)      0
      6      6  H        2   1.109000(     5)      1  109.500(    11)      3   10.000(    16)      0
      7      7  H        2   1.109000(     6)      1  109.500(    12)      4   10.000(    17)      0
      8      8  Cl       2   1.790000(     7)      1  109.500(    13)      5   10.000(    18)      0
 ---------------------------------------------------------------------------------------------------
                         Z-Matrix orientation:                         
 ---------------------------------------------------------------------
 Center     Atomic      Atomic             Coordinates (Angstroms)
 Number     Number       Type             X           Y           Z
 ---------------------------------------------------------------------
      1          6           0        0.000000    0.000000    0.000000
      2          6           0        0.000000    0.000000    1.514000
      3          1           0        1.045389    0.000000   -0.370192
      4          1           0       -0.522695   -0.905334   -0.370192
      5         17           0       -0.843664    1.461269   -0.597514
      6          1           0        1.029508    0.181530    1.884192
      7          1           0       -0.357544   -0.982345    1.884192
      8         17           0       -1.084594    1.292568    2.111514
 ---------------------------------------------------------------------
                    Distance matrix (angstroms):
                    1          2          3          4          5
     1  C    0.000000
     2  C    1.514000   0.000000
     3  H    1.109000   2.154766   0.000000
     4  H    1.109000   2.154766   1.810668   0.000000
     5  Cl   1.790000   2.702882   2.399064   2.399064   0.000000
     6  H    2.154766   1.109000   2.261736   2.944970   3.362346
     7  H    2.154766   1.109000   2.831160   2.261736   3.516593
     8  Cl   2.702882   1.790000   3.516593   3.362346   2.724948
                    6          7          8
     6  H    0.000000
     7  H    1.810668   0.000000
     8  Cl   2.399064   2.399064   0.000000
 Stoichiometry    C2H4Cl2
 Framework group  C2[X(C2H4Cl2)]
 Deg. of freedom    10
 Full point group                 C2      NOp   2
 Omega: Change in point group or standard orientation.

 Old FWG=C02V [SGV(C2Cl2),X(H4)]
 New FWG=C02  [X(C2H4Cl2)]
 Largest Abelian subgroup         C2      NOp   2
 Largest concise Abelian subgroup C2      NOp   2
                         Standard orientation:                         
 ---------------------------------------------------------------------
 Center     Atomic      Atomic             Coordinates (Angstroms)
 Number     Number       Type             X           Y           Z
 ---------------------------------------------------------------------
      1          6           0        0.052595    0.755171    1.101361
      2          6           0       -0.052595   -0.755171    1.101361
      3          1           0       -0.775948    1.183965    1.700971
      4          1           0        1.023471    1.058641    1.543161
      5         17           0       -0.052595    1.361459   -0.579547
      6          1           0       -1.023471   -1.058641    1.543161
      7          1           0        0.775948   -1.183965    1.700971
      8         17           0        0.052595   -1.361459   -0.579547
 ---------------------------------------------------------------------
 Rotational constants (GHZ):      7.6410732      3.3250700      2.3934388
 Standard basis: VSTO-6G (5D, 7F)
 There are    15 symmetry adapted basis functions of A   symmetry.
 There are    15 symmetry adapted basis functions of B   symmetry.
 Integral buffers will be    262144 words long.
 Regular integral format.
 Two-electron integral symmetry is turned off.
    30 basis functions,   192 primitive gaussians,    32 cartesian basis functions
    13 alpha electrons       13 beta electrons
       nuclear repulsion energy        88.0220285009 Hartrees.
 Do NDO integrals.
 One-electron integrals computed using PRISM.
 NBasis=    30 RedAO= F  NBF=    15    15
 NBsUse=    30 1.00D-04 NBFU=    15    15
 Initial guess read from the read-write file.
 B after Tr=     0.000000    0.000000    0.000000
         Rot=    1.000000    0.000000    0.000000    0.000000 Ang=   0.00 deg.
 Initial guess orbital symmetries:
       Occupied  (A) (B) (A) (B) (B) (A) (A) (A) (B) (A) (B) (A)
                 (B)
       Virtual   (A) (B) (B) (B) (A) (A) (B) (A) (B) (A) (B) (A)
                 (A) (B) (B) (B) (A)
 Requested convergence on RMS density matrix=1.00D-08 within 128 cycles.
 Requested convergence on MAX density matrix=1.00D-06.
 Requested convergence on             energy=1.00D-06.
 No special actions if energy rises.
 Overlap will be assumed to be unity.
 Keep J ints in memory in canonical form, NReq=903229.
 Fock symm off for IB=2 I1=    1 I=   16 J=    5 Cut=1.00D-07 Err=1.32D-02
 Fock matrix is not symmetric: symmetry in diagonalization turned off.
 SCF Done:  E(RPM6) = -0.329154578212E-01 A.U. after   12 cycles
             Convg  =    0.3516D-08             -V/T =  0.9972
 Variable Step   Value    
 -------- ---- -----------
     6       2    0.349066
 ---------------------------------------------------------------------------------------------------
                            Z-MATRIX (ANGSTROMS AND DEGREES)
   CD    Cent   Atom    N1       Length/X        N2       Alpha/Y        N3        Beta/Z          J
 ---------------------------------------------------------------------------------------------------
      1      1  C 
      2      2  C        1   1.514000(     1)
      3      3  H        1   1.109000(     2)      2  109.500(     8)
      4      4  H        1   1.109000(     3)      2  109.500(     9)      3  120.000(    14)      0
      5      5  Cl       1   1.790000(     4)      2  109.500(    10)      3 -120.000(    15)      0
      6      6  H        2   1.109000(     5)      1  109.500(    11)      3   20.000(    16)      0
      7      7  H        2   1.109000(     6)      1  109.500(    12)      4   20.000(    17)      0
      8      8  Cl       2   1.790000(     7)      1  109.500(    13)      5   20.000(    18)      0
 ---------------------------------------------------------------------------------------------------
                         Z-Matrix orientation:                         
 ---------------------------------------------------------------------
 Center     Atomic      Atomic             Coordinates (Angstroms)
 Number     Number       Type             X           Y           Z
 ---------------------------------------------------------------------
      1          6           0        0.000000    0.000000    0.000000
      2          6           0        0.000000    0.000000    1.514000
      3          1           0        1.045389    0.000000   -0.370192
      4          1           0       -0.522695   -0.905334   -0.370192
      5         17           0       -0.843664    1.461269   -0.597514
      6          1           0        0.982345    0.357544    1.884192
      7          1           0       -0.181530   -1.029508    1.884192
      8         17           0       -1.292568    1.084594    2.111514
 ---------------------------------------------------------------------
                    Distance matrix (angstroms):
                    1          2          3          4          5
     1  C    0.000000
     2  C    1.514000   0.000000
     3  H    1.109000   2.154766   0.000000
     4  H    1.109000   2.154766   1.810668   0.000000
     5  Cl   1.790000   2.702882   2.399064   2.399064   0.000000
     6  H    2.154766   1.109000   2.283431   2.990360   3.272825
     7  H    2.154766   1.109000   2.765405   2.283431   3.577884
     8  Cl   2.702882   1.790000   3.577884   3.272825   2.771685
                    6          7          8
     6  H    0.000000
     7  H    1.810668   0.000000
     8  Cl   2.399064   2.399064   0.000000
 Stoichiometry    C2H4Cl2
 Framework group  C2[X(C2H4Cl2)]
 Deg. of freedom    10
 Full point group                 C2      NOp   2
 Largest Abelian subgroup         C2      NOp   2
 Largest concise Abelian subgroup C2      NOp   2
                         Standard orientation:                         
 ---------------------------------------------------------------------
 Center     Atomic      Atomic             Coordinates (Angstroms)
 Number     Number       Type             X           Y           Z
 ---------------------------------------------------------------------
      1          6           0        0.104047    0.749815    1.088772
      2          6           0       -0.104047   -0.749815    1.088772
      3          1           0       -0.638286    1.226563    1.760735
      4          1           0        1.127950    0.981474    1.446316
      5         17           0       -0.104047    1.381931   -0.572922
      6          1           0       -1.127950   -0.981474    1.446316
      7          1           0        0.638286   -1.226563    1.760735
      8         17           0        0.104047   -1.381931   -0.572922
 ---------------------------------------------------------------------
 Rotational constants (GHZ):      7.7368421      3.2306540      2.3647384
 Standard basis: VSTO-6G (5D, 7F)
 There are    15 symmetry adapted basis functions of A   symmetry.
 There are    15 symmetry adapted basis functions of B   symmetry.
 Integral buffers will be    262144 words long.
 Regular integral format.
 Two-electron integral symmetry is turned off.
    30 basis functions,   192 primitive gaussians,    32 cartesian basis functions
    13 alpha electrons       13 beta electrons
       nuclear repulsion energy        87.9184416401 Hartrees.
 Do NDO integrals.
 One-electron integrals computed using PRISM.
 NBasis=    30 RedAO= F  NBF=    15    15
 NBsUse=    30 1.00D-04 NBFU=    15    15
 Initial guess read from the read-write file.
 B after Tr=     0.000000    0.000000    0.000000
         Rot=    1.000000    0.000000    0.000000    0.000000 Ang=   0.00 deg.
 Initial guess orbital symmetries:
       Occupied  (A) (B) (A) (B) (B) (A) (A) (A) (B) (A) (B) (A)
                 (B)
       Virtual   (A) (B) (B) (B) (A) (A) (B) (A) (B) (A) (B) (A)
                 (A) (B) (B) (B) (A)
 Requested convergence on RMS density matrix=1.00D-08 within 128 cycles.
 Requested convergence on MAX density matrix=1.00D-06.
 Requested convergence on             energy=1.00D-06.
 No special actions if energy rises.
 Overlap will be assumed to be unity.
 Keep J ints in memory in canonical form, NReq=903229.
 Fock symm off for IB=2 I1=    1 I=   16 J=    5 Cut=1.00D-07 Err=1.29D-02
 Fock matrix is not symmetric: symmetry in diagonalization turned off.
 SCF Done:  E(RPM6) = -0.348269475949E-01 A.U. after   12 cycles
             Convg  =    0.3561D-08             -V/T =  0.9971
 Variable Step   Value    
 -------- ---- -----------
     6       3    0.523599
 ---------------------------------------------------------------------------------------------------
                            Z-MATRIX (ANGSTROMS AND DEGREES)
   CD    Cent   Atom    N1       Length/X        N2       Alpha/Y        N3        Beta/Z          J
 ---------------------------------------------------------------------------------------------------
      1      1  C 
      2      2  C        1   1.514000(     1)
      3      3  H        1   1.109000(     2)      2  109.500(     8)
      4      4  H        1   1.109000(     3)      2  109.500(     9)      3  120.000(    14)      0
      5      5  Cl       1   1.790000(     4)      2  109.500(    10)      3 -120.000(    15)      0
      6      6  H        2   1.109000(     5)      1  109.500(    11)      3   30.000(    16)      0
      7      7  H        2   1.109000(     6)      1  109.500(    12)      4   30.000(    17)      0
      8      8  Cl       2   1.790000(     7)      1  109.500(    13)      5   30.000(    18)      0
 ---------------------------------------------------------------------------------------------------
                         Z-Matrix orientation:                         
 ---------------------------------------------------------------------
 Center     Atomic      Atomic             Coordinates (Angstroms)
 Number     Number       Type             X           Y           Z
 ---------------------------------------------------------------------
      1          6           0        0.000000    0.000000    0.000000
      2          6           0        0.000000    0.000000    1.514000
      3          1           0        1.045389    0.000000   -0.370192
      4          1           0       -0.522695   -0.905334   -0.370192
      5         17           0       -0.843664    1.461269   -0.597514
      6          1           0        0.905334    0.522695    1.884192
      7          1           0        0.000000   -1.045389    1.884192
      8         17           0       -1.461269    0.843664    2.111514
 ---------------------------------------------------------------------
                    Distance matrix (angstroms):
                    1          2          3          4          5
     1  C    0.000000
     2  C    1.514000   0.000000
     3  H    1.109000   2.154766   0.000000
     4  H    1.109000   2.154766   1.810668   0.000000
     5  Cl   1.790000   2.702882   2.399064   2.399064   0.000000
     6  H    2.154766   1.109000   2.318420   3.026677   3.177858
     7  H    2.154766   1.109000   2.695909   2.318420   3.626840
     8  Cl   2.702882   1.790000   3.626840   3.177858   2.846350
                    6          7          8
     6  H    0.000000
     7  H    1.810668   0.000000
     8  Cl   2.399064   2.399064   0.000000
 Stoichiometry    C2H4Cl2
 Framework group  C2[X(C2H4Cl2)]
 Deg. of freedom    10
 Full point group                 C2      NOp   2
 Largest Abelian subgroup         C2      NOp   2
 Largest concise Abelian subgroup C2      NOp   2
                         Standard orientation:                         
 ---------------------------------------------------------------------
 Center     Atomic      Atomic             Coordinates (Angstroms)
 Number     Number       Type             X           Y           Z
 ---------------------------------------------------------------------
      1          6           0        0.153321    0.741311    1.067896
      2          6           0       -0.153321   -0.741311    1.067896
      3          1           0       -0.495583    1.253546    1.807098
      4          1           0        1.217140    0.899314    1.338463
      5         17           0       -0.153321    1.414892   -0.561938
      6          1           0       -1.217140   -0.899314    1.338463
      7          1           0        0.495583   -1.253546    1.807098
      8         17           0        0.153321   -1.414892   -0.561938
 ---------------------------------------------------------------------
 Rotational constants (GHZ):      7.9056442      3.0874999      2.3187093
 Standard basis: VSTO-6G (5D, 7F)
 There are    15 symmetry adapted basis functions of A   symmetry.
 There are    15 symmetry adapted basis functions of B   symmetry.
 Integral buffers will be    262144 words long.
 Regular integral format.
 Two-electron integral symmetry is turned off.
    30 basis functions,   192 primitive gaussians,    32 cartesian basis functions
    13 alpha electrons       13 beta electrons
       nuclear repulsion energy        87.7607873550 Hartrees.
 Do NDO integrals.
 One-electron integrals computed using PRISM.
 NBasis=    30 RedAO= F  NBF=    15    15
 NBsUse=    30 1.00D-04 NBFU=    15    15
 Initial guess read from the read-write file.
 B after Tr=     0.000000    0.000000    0.000000
         Rot=    1.000000    0.000000    0.000000    0.000000 Ang=   0.00 deg.
 Initial guess orbital symmetries:
       Occupied  (A) (B) (A) (B) (B) (A) (A) (A) (B) (A) (B) (A)
                 (B)
       Virtual   (A) (B) (B) (B) (A) (A) (B) (A) (B) (A) (B) (A)
                 (A) (B) (B) (B) (A)
 Requested convergence on RMS density matrix=1.00D-08 within 128 cycles.
 Requested convergence on MAX density matrix=1.00D-06.
 Requested convergence on             energy=1.00D-06.
 No special actions if energy rises.
 Overlap will be assumed to be unity.
 Keep J ints in memory in canonical form, NReq=903229.
 Fock symm off for IB=2 I1=    1 I=   16 J=    5 Cut=1.00D-07 Err=1.23D-02
 Fock matrix is not symmetric: symmetry in diagonalization turned off.
 SCF Done:  E(RPM6) = -0.370686421718E-01 A.U. after   12 cycles
             Convg  =    0.4790D-08             -V/T =  0.9969
 Variable Step   Value    
 -------- ---- -----------
     6       4    0.698132
 ---------------------------------------------------------------------------------------------------
                            Z-MATRIX (ANGSTROMS AND DEGREES)
   CD    Cent   Atom    N1       Length/X        N2       Alpha/Y        N3        Beta/Z          J
 ---------------------------------------------------------------------------------------------------
      1      1  C 
      2      2  C        1   1.514000(     1)
      3      3  H        1   1.109000(     2)      2  109.500(     8)
      4      4  H        1   1.109000(     3)      2  109.500(     9)      3  120.000(    14)      0
      5      5  Cl       1   1.790000(     4)      2  109.500(    10)      3 -120.000(    15)      0
      6      6  H        2   1.109000(     5)      1  109.500(    11)      3   40.000(    16)      0
      7      7  H        2   1.109000(     6)      1  109.500(    12)      4   40.000(    17)      0
      8      8  Cl       2   1.790000(     7)      1  109.500(    13)      5   40.000(    18)      0
 ---------------------------------------------------------------------------------------------------
                         Z-Matrix orientation:                         
 ---------------------------------------------------------------------
 Center     Atomic      Atomic             Coordinates (Angstroms)
 Number     Number       Type             X           Y           Z
 ---------------------------------------------------------------------
      1          6           0        0.000000    0.000000    0.000000
      2          6           0        0.000000    0.000000    1.514000
      3          1           0        1.045389    0.000000   -0.370192
      4          1           0       -0.522695   -0.905334   -0.370192
      5         17           0       -0.843664    1.461269   -0.597514
      6          1           0        0.800815    0.671963    1.884192
      7          1           0        0.181530   -1.029508    1.884192
      8         17           0       -1.585570    0.577100    2.111514
 ---------------------------------------------------------------------
                    Distance matrix (angstroms):
                    1          2          3          4          5
     1  C    0.000000
     2  C    1.514000   0.000000
     3  H    1.109000   2.154766   0.000000
     4  H    1.109000   2.154766   1.810668   0.000000
     5  Cl   1.790000   2.702882   2.399064   2.399064   0.000000
     6  H    2.154766   1.109000   2.365079   3.053161   3.079964
     7  H    2.154766   1.109000   2.624573   2.365079   3.662493
     8  Cl   2.702882   1.790000   3.662493   3.079964   2.944659
                    6          7          8
     6  H    0.000000
     7  H    1.810668   0.000000
     8  Cl   2.399064   2.399064   0.000000
 Stoichiometry    C2H4Cl2
 Framework group  C2[X(C2H4Cl2)]
 Deg. of freedom    10
 Full point group                 C2      NOp   2
 Largest Abelian subgroup         C2      NOp   2
 Largest concise Abelian subgroup C2      NOp   2
                         Standard orientation:                         
 ---------------------------------------------------------------------
 Center     Atomic      Atomic             Coordinates (Angstroms)
 Number     Number       Type             X           Y           Z
 ---------------------------------------------------------------------
      1          6           0        0.199577    0.730218    1.038894
      2          6           0       -0.199577   -0.730218    1.038894
      3          1           0       -0.351015    1.264470    1.839709
      4          1           0        1.290259    0.815892    1.220424
      5         17           0       -0.199577    1.458740   -0.546676
      6          1           0       -1.290259   -0.815892    1.220424
      7          1           0        0.351015   -1.264470    1.839709
      8         17           0        0.199577   -1.458740   -0.546676
 ---------------------------------------------------------------------
 Rotational constants (GHZ):      8.1604294      2.9123538      2.2579918
 Standard basis: VSTO-6G (5D, 7F)
 There are    15 symmetry adapted basis functions of A   symmetry.
 There are    15 symmetry adapted basis functions of B   symmetry.
 Integral buffers will be    262144 words long.
 Regular integral format.
 Two-electron integral symmetry is turned off.
    30 basis functions,   192 primitive gaussians,    32 cartesian basis functions
    13 alpha electrons       13 beta electrons
       nuclear repulsion energy        87.5668236836 Hartrees.
 Do NDO integrals.
 One-electron integrals computed using PRISM.
 NBasis=    30 RedAO= F  NBF=    15    15
 NBsUse=    30 1.00D-04 NBFU=    15    15
 Initial guess read from the read-write file.
 B after Tr=     0.000000    0.000000    0.000000
         Rot=    1.000000    0.000000    0.000000    0.000000 Ang=   0.00 deg.
 Initial guess orbital symmetries:
       Occupied  (A) (B) (A) (B) (B) (A) (A) (A) (B) (A) (B) (A)
                 (B)
       Virtual   (A) (B) (B) (B) (A) (A) (B) (A) (B) (A) (B) (A)
                 (A) (B) (B) (B) (A)
 Requested convergence on RMS density matrix=1.00D-08 within 128 cycles.
 Requested convergence on MAX density matrix=1.00D-06.
 Requested convergence on             energy=1.00D-06.
 No special actions if energy rises.
 Overlap will be assumed to be unity.
 Keep J ints in memory in canonical form, NReq=903229.
 Fock symm off for IB=2 I1=    1 I=   16 J=    5 Cut=1.00D-07 Err=1.15D-02
 Fock matrix is not symmetric: symmetry in diagonalization turned off.
 SCF Done:  E(RPM6) = -0.389308480998E-01 A.U. after   12 cycles
             Convg  =    0.4039D-08             -V/T =  0.9967
 Variable Step   Value    
 -------- ---- -----------
     6       5    0.872665
 ---------------------------------------------------------------------------------------------------
                            Z-MATRIX (ANGSTROMS AND DEGREES)
   CD    Cent   Atom    N1       Length/X        N2       Alpha/Y        N3        Beta/Z          J
 ---------------------------------------------------------------------------------------------------
      1      1  C 
      2      2  C        1   1.514000(     1)
      3      3  H        1   1.109000(     2)      2  109.500(     8)
      4      4  H        1   1.109000(     3)      2  109.500(     9)      3  120.000(    14)      0
      5      5  Cl       1   1.790000(     4)      2  109.500(    10)      3 -120.000(    15)      0
      6      6  H        2   1.109000(     5)      1  109.500(    11)      3   50.000(    16)      0
      7      7  H        2   1.109000(     6)      1  109.500(    12)      4   50.000(    17)      0
      8      8  Cl       2   1.790000(     7)      1  109.500(    13)      5   50.000(    18)      0
 ---------------------------------------------------------------------------------------------------
                         Z-Matrix orientation:                         
 ---------------------------------------------------------------------
 Center     Atomic      Atomic             Coordinates (Angstroms)
 Number     Number       Type             X           Y           Z
 ---------------------------------------------------------------------
      1          6           0        0.000000    0.000000    0.000000
      2          6           0        0.000000    0.000000    1.514000
      3          1           0        1.045389    0.000000   -0.370192
      4          1           0       -0.522695   -0.905334   -0.370192
      5         17           0       -0.843664    1.461269   -0.597514
      6          1           0        0.671963    0.800815    1.884192
      7          1           0        0.357544   -0.982345    1.884192
      8         17           0       -1.661694    0.293001    2.111514
 ---------------------------------------------------------------------
                    Distance matrix (angstroms):
                    1          2          3          4          5
     1  C    0.000000
     2  C    1.514000   0.000000
     3  H    1.109000   2.154766   0.000000
     4  H    1.109000   2.154766   1.810668   0.000000
     5  Cl   1.790000   2.702882   2.399064   2.399064   0.000000
     6  H    2.154766   1.109000   2.421363   3.069266   2.981978
     7  H    2.154766   1.109000   2.553503   2.421363   3.684157
     8  Cl   2.702882   1.790000   3.684157   2.981978   3.061512
                    6          7          8
     6  H    0.000000
     7  H    1.810668   0.000000
     8  Cl   2.399064   2.399064   0.000000
 Stoichiometry    C2H4Cl2
 Framework group  C2[X(C2H4Cl2)]
 Deg. of freedom    10
 Full point group                 C2      NOp   2
 Largest Abelian subgroup         C2      NOp   2
 Largest concise Abelian subgroup C2      NOp   2
                         Standard orientation:                         
 ---------------------------------------------------------------------
 Center     Atomic      Atomic             Coordinates (Angstroms)
 Number     Number       Type             X           Y           Z
 ---------------------------------------------------------------------
      1          6           0        0.242213    0.717204    1.001985
      2          6           0       -0.242213   -0.717204    1.001985
      3          1           0       -0.207428    1.259789    1.858317
      4          1           0        1.347325    0.734721    1.093096
      5         17           0       -0.242213    1.511472   -0.527254
      6          1           0       -1.347325   -0.734721    1.093096
      7          1           0        0.207428   -1.259789    1.858317
      8         17           0        0.242213   -1.511472   -0.527254
 ---------------------------------------------------------------------
 Rotational constants (GHZ):      8.5182573      2.7219943      2.1860450
 Standard basis: VSTO-6G (5D, 7F)
 There are    15 symmetry adapted basis functions of A   symmetry.
 There are    15 symmetry adapted basis functions of B   symmetry.
 Integral buffers will be    262144 words long.
 Regular integral format.
 Two-electron integral symmetry is turned off.
    30 basis functions,   192 primitive gaussians,    32 cartesian basis functions
    13 alpha electrons       13 beta electrons
       nuclear repulsion energy        87.3544829037 Hartrees.
 Do NDO integrals.
 One-electron integrals computed using PRISM.
 NBasis=    30 RedAO= F  NBF=    15    15
 NBsUse=    30 1.00D-04 NBFU=    15    15
 Initial guess read from the read-write file.
 B after Tr=     0.000000    0.000000    0.000000
         Rot=    1.000000    0.000000    0.000000    0.000000 Ang=   0.00 deg.
 Initial guess orbital symmetries:
       Occupied  (A) (B) (A) (B) (B) (A) (A) (A) (B) (A) (B) (A)
                 (B)
       Virtual   (A) (B) (B) (B) (A) (A) (B) (A) (B) (A) (B) (A)
                 (A) (B) (B) (B) (A)
 Requested convergence on RMS density matrix=1.00D-08 within 128 cycles.
 Requested convergence on MAX density matrix=1.00D-06.
 Requested convergence on             energy=1.00D-06.
 No special actions if energy rises.
 Overlap will be assumed to be unity.
 Keep J ints in memory in canonical form, NReq=903229.
 Fock symm off for IB=2 I1=    1 I=   16 J=    5 Cut=1.00D-07 Err=1.07D-02
 Fock matrix is not symmetric: symmetry in diagonalization turned off.
 SCF Done:  E(RPM6) = -0.402148718515E-01 A.U. after   12 cycles
             Convg  =    0.4568D-08             -V/T =  0.9966
 Variable Step   Value    
 -------- ---- -----------
     6       6    1.047198
 ---------------------------------------------------------------------------------------------------
                            Z-MATRIX (ANGSTROMS AND DEGREES)
   CD    Cent   Atom    N1       Length/X        N2       Alpha/Y        N3        Beta/Z          J
 ---------------------------------------------------------------------------------------------------
      1      1  C 
      2      2  C        1   1.514000(     1)
      3      3  H        1   1.109000(     2)      2  109.500(     8)
      4      4  H        1   1.109000(     3)      2  109.500(     9)      3  120.000(    14)      0
      5      5  Cl       1   1.790000(     4)      2  109.500(    10)      3 -120.000(    15)      0
      6      6  H        2   1.109000(     5)      1  109.500(    11)      3   60.000(    16)      0
      7      7  H        2   1.109000(     6)      1  109.500(    12)      4   60.000(    17)      0
      8      8  Cl       2   1.790000(     7)      1  109.500(    13)      5   60.000(    18)      0
 ---------------------------------------------------------------------------------------------------
                         Z-Matrix orientation:                         
 ---------------------------------------------------------------------
 Center     Atomic      Atomic             Coordinates (Angstroms)
 Number     Number       Type             X           Y           Z
 ---------------------------------------------------------------------
      1          6           0        0.000000    0.000000    0.000000
      2          6           0        0.000000    0.000000    1.514000
      3          1           0        1.045389    0.000000   -0.370192
      4          1           0       -0.522695   -0.905334   -0.370192
      5         17           0       -0.843664    1.461269   -0.597514
      6          1           0        0.522695    0.905334    1.884192
      7          1           0        0.522695   -0.905334    1.884192
      8         17           0       -1.687328    0.000000    2.111514
 ---------------------------------------------------------------------
                    Distance matrix (angstroms):
                    1          2          3          4          5
     1  C    0.000000
     2  C    1.514000   0.000000
     3  H    1.109000   2.154766   0.000000
     4  H    1.109000   2.154766   1.810668   0.000000
     5  Cl   1.790000   2.702882   2.399064   2.399064   0.000000
     6  H    2.154766   1.109000   2.484972   3.074671   2.887017
     7  H    2.154766   1.109000   2.484972   2.484972   3.691424
     8  Cl   2.702882   1.790000   3.691424   2.887017   3.191538
                    6          7          8
     6  H    0.000000
     7  H    1.810668   0.000000
     8  Cl   2.399064   2.399064   0.000000
 Stoichiometry    C2H4Cl2
 Framework group  C2[X(C2H4Cl2)]
 Deg. of freedom    10
 Full point group                 C2      NOp   2
 Largest Abelian subgroup         C2      NOp   2
 Largest concise Abelian subgroup C2      NOp   2
                         Standard orientation:                         
 ---------------------------------------------------------------------
 Center     Atomic      Atomic             Coordinates (Angstroms)
 Number     Number       Type             X           Y           Z
 ---------------------------------------------------------------------
      1          6           0        0.280872    0.702965    0.957450
      2          6           0       -0.280872   -0.702965    0.957450
      3          1           0       -0.067158    1.240670    1.862783
      4          1           0        1.388995    0.658858    0.957450
      5         17           0       -0.280872    1.570856   -0.503819
      6          1           0       -1.388995   -0.658858    0.957450
      7          1           0        0.067158   -1.240670    1.862783
      8         17           0        0.280872   -1.570856   -0.503819
 ---------------------------------------------------------------------
 Rotational constants (GHZ):      9.0001963      2.5303933      2.1067920
 Standard basis: VSTO-6G (5D, 7F)
 There are    15 symmetry adapted basis functions of A   symmetry.
 There are    15 symmetry adapted basis functions of B   symmetry.
 Integral buffers will be    262144 words long.
 Regular integral format.
 Two-electron integral symmetry is turned off.
    30 basis functions,   192 primitive gaussians,    32 cartesian basis functions
    13 alpha electrons       13 beta electrons
       nuclear repulsion energy        87.1389686996 Hartrees.
 Do NDO integrals.
 One-electron integrals computed using PRISM.
 NBasis=    30 RedAO= F  NBF=    15    15
 NBsUse=    30 1.00D-04 NBFU=    15    15
 Initial guess read from the read-write file.
 B after Tr=     0.000000    0.000000    0.000000
         Rot=    1.000000    0.000000    0.000000    0.000000 Ang=   0.00 deg.
 Initial guess orbital symmetries:
       Occupied  (A) (B) (A) (B) (B) (A) (A) (A) (B) (A) (B) (A)
                 (B)
       Virtual   (A) (B) (B) (B) (A) (B) (A) (A) (A) (B) (B) (A)
                 (B) (A) (B) (B) (A)
 Requested convergence on RMS density matrix=1.00D-08 within 128 cycles.
 Requested convergence on MAX density matrix=1.00D-06.
 Requested convergence on             energy=1.00D-06.
 No special actions if energy rises.
 Overlap will be assumed to be unity.
 Keep J ints in memory in canonical form, NReq=903229.
 Fock symm off for IB=2 I1=    1 I=   16 J=    5 Cut=1.00D-07 Err=9.73D-03
 Fock matrix is not symmetric: symmetry in diagonalization turned off.
 SCF Done:  E(RPM6) = -0.411028658738E-01 A.U. after   12 cycles
             Convg  =    0.1996D-08             -V/T =  0.9965
 Variable Step   Value    
 -------- ---- -----------
     6       7    1.221730
 ---------------------------------------------------------------------------------------------------
                            Z-MATRIX (ANGSTROMS AND DEGREES)
   CD    Cent   Atom    N1       Length/X        N2       Alpha/Y        N3        Beta/Z          J
 ---------------------------------------------------------------------------------------------------
      1      1  C 
      2      2  C        1   1.514000(     1)
      3      3  H        1   1.109000(     2)      2  109.500(     8)
      4      4  H        1   1.109000(     3)      2  109.500(     9)      3  120.000(    14)      0
      5      5  Cl       1   1.790000(     4)      2  109.500(    10)      3 -120.000(    15)      0
      6      6  H        2   1.109000(     5)      1  109.500(    11)      3   70.000(    16)      0
      7      7  H        2   1.109000(     6)      1  109.500(    12)      4   70.000(    17)      0
      8      8  Cl       2   1.790000(     7)      1  109.500(    13)      5   70.000(    18)      0
 ---------------------------------------------------------------------------------------------------
                         Z-Matrix orientation:                         
 ---------------------------------------------------------------------
 Center     Atomic      Atomic             Coordinates (Angstroms)
 Number     Number       Type             X           Y           Z
 ---------------------------------------------------------------------
      1          6           0        0.000000    0.000000    0.000000
      2          6           0        0.000000    0.000000    1.514000
      3          1           0        1.045389    0.000000   -0.370192
      4          1           0       -0.522695   -0.905334   -0.370192
      5         17           0       -0.843664    1.461269   -0.597514
      6          1           0        0.357544    0.982345    1.884192
      7          1           0        0.671963   -0.800815    1.884192
      8         17           0       -1.661694   -0.293001    2.111514
 ---------------------------------------------------------------------
                    Distance matrix (angstroms):
                    1          2          3          4          5
     1  C    0.000000
     2  C    1.514000   0.000000
     3  H    1.109000   2.154766   0.000000
     4  H    1.109000   2.154766   1.810668   0.000000
     5  Cl   1.790000   2.702882   2.399064   2.399064   0.000000
     6  H    2.154766   1.109000   2.553503   3.069266   2.798417
     7  H    2.154766   1.109000   2.421363   2.553503   3.684157
     8  Cl   2.702882   1.790000   3.684157   2.798417   3.329486
                    6          7          8
     6  H    0.000000
     7  H    1.810668   0.000000
     8  Cl   2.399064   2.399064   0.000000
 Stoichiometry    C2H4Cl2
 Framework group  C2[X(C2H4Cl2)]
 Deg. of freedom    10
 Full point group                 C2      NOp   2
 Largest Abelian subgroup         C2      NOp   2
 Largest concise Abelian subgroup C2      NOp   2
                         Standard orientation:                         
 ---------------------------------------------------------------------
 Center     Atomic      Atomic             Coordinates (Angstroms)
 Number     Number       Type             X           Y           Z
 ---------------------------------------------------------------------
      1          6           0        0.315417    0.688158    0.905628
      2          6           0       -0.315417   -0.688158    0.905628
      3          1           0        0.068041    1.208768    1.853073
      4          1           0        1.416368    0.590762    0.814516
      5         17           0       -0.315417    1.634589   -0.476550
      6          1           0       -1.416368   -0.590762    0.814516
      7          1           0       -0.068041   -1.208768    1.853073
      8         17           0        0.315417   -1.634589   -0.476550
 ---------------------------------------------------------------------
 Rotational constants (GHZ):      9.6318597      2.3475665      2.0241853
 Standard basis: VSTO-6G (5D, 7F)
 There are    15 symmetry adapted basis functions of A   symmetry.
 There are    15 symmetry adapted basis functions of B   symmetry.
 Integral buffers will be    262144 words long.
 Regular integral format.
 Two-electron integral symmetry is turned off.
    30 basis functions,   192 primitive gaussians,    32 cartesian basis functions
    13 alpha electrons       13 beta electrons
       nuclear repulsion energy        86.9315290040 Hartrees.
 Do NDO integrals.
 One-electron integrals computed using PRISM.
 NBasis=    30 RedAO= F  NBF=    15    15
 NBsUse=    30 1.00D-04 NBFU=    15    15
 Initial guess read from the read-write file.
 B after Tr=     0.000000    0.000000    0.000000
         Rot=    1.000000    0.000000    0.000000    0.000000 Ang=   0.00 deg.
 Initial guess orbital symmetries:
       Occupied  (A) (B) (A) (B) (B) (A) (A) (A) (B) (B) (A) (A)
                 (B)
       Virtual   (A) (B) (B) (B) (A) (B) (A) (A) (A) (B) (B) (A)
                 (B) (A) (B) (B) (A)
 Requested convergence on RMS density matrix=1.00D-08 within 128 cycles.
 Requested convergence on MAX density matrix=1.00D-06.
 Requested convergence on             energy=1.00D-06.
 No special actions if energy rises.
 Overlap will be assumed to be unity.
 Keep J ints in memory in canonical form, NReq=903229.
 Fock symm off for IB=2 I1=    1 I=   16 J=    5 Cut=1.00D-07 Err=8.77D-03
 Fock matrix is not symmetric: symmetry in diagonalization turned off.
 SCF Done:  E(RPM6) = -0.417459831918E-01 A.U. after   12 cycles
             Convg  =    0.2257D-08             -V/T =  0.9965
 Variable Step   Value    
 -------- ---- -----------
     6       8    1.396263
 ---------------------------------------------------------------------------------------------------
                            Z-MATRIX (ANGSTROMS AND DEGREES)
   CD    Cent   Atom    N1       Length/X        N2       Alpha/Y        N3        Beta/Z          J
 ---------------------------------------------------------------------------------------------------
      1      1  C 
      2      2  C        1   1.514000(     1)
      3      3  H        1   1.109000(     2)      2  109.500(     8)
      4      4  H        1   1.109000(     3)      2  109.500(     9)      3  120.000(    14)      0
      5      5  Cl       1   1.790000(     4)      2  109.500(    10)      3 -120.000(    15)      0
      6      6  H        2   1.109000(     5)      1  109.500(    11)      3   80.000(    16)      0
      7      7  H        2   1.109000(     6)      1  109.500(    12)      4   80.000(    17)      0
      8      8  Cl       2   1.790000(     7)      1  109.500(    13)      5   80.000(    18)      0
 ---------------------------------------------------------------------------------------------------
                         Z-Matrix orientation:                         
 ---------------------------------------------------------------------
 Center     Atomic      Atomic             Coordinates (Angstroms)
 Number     Number       Type             X           Y           Z
 ---------------------------------------------------------------------
      1          6           0        0.000000    0.000000    0.000000
      2          6           0        0.000000    0.000000    1.514000
      3          1           0        1.045389    0.000000   -0.370192
      4          1           0       -0.522695   -0.905334   -0.370192
      5         17           0       -0.843664    1.461269   -0.597514
      6          1           0        0.181530    1.029508    1.884192
      7          1           0        0.800815   -0.671963    1.884192
      8         17           0       -1.585570   -0.577100    2.111514
 ---------------------------------------------------------------------
                    Distance matrix (angstroms):
                    1          2          3          4          5
     1  C    0.000000
     2  C    1.514000   0.000000
     3  H    1.109000   2.154766   0.000000
     4  H    1.109000   2.154766   1.810668   0.000000
     5  Cl   1.790000   2.702882   2.399064   2.399064   0.000000
     6  H    2.154766   1.109000   2.624573   3.053161   2.719615
     7  H    2.154766   1.109000   2.365079   2.624573   3.662493
     8  Cl   2.702882   1.790000   3.662493   2.719615   3.470477
                    6          7          8
     6  H    0.000000
     7  H    1.810668   0.000000
     8  Cl   2.399064   2.399064   0.000000
 Stoichiometry    C2H4Cl2
 Framework group  C2[X(C2H4Cl2)]
 Deg. of freedom    10
 Full point group                 C2      NOp   2
 Largest Abelian subgroup         C2      NOp   2
 Largest concise Abelian subgroup C2      NOp   2
                         Standard orientation:                         
 ---------------------------------------------------------------------
 Center     Atomic      Atomic             Coordinates (Angstroms)
 Number     Number       Type             X           Y           Z
 ---------------------------------------------------------------------
      1          6           0        0.345878    0.673363    0.846914
      2          6           0       -0.345878   -0.673363    0.846914
      3          1           0        0.196979    1.166018    1.829259
      4          1           0        1.430783    0.532267    0.665384
      5         17           0       -0.345878    1.700418   -0.445654
      6          1           0       -1.430783   -0.532267    0.665384
      7          1           0       -0.196979   -1.166018    1.829259
      8         17           0        0.345878   -1.700418   -0.445654
 ---------------------------------------------------------------------
 Rotational constants (GHZ):     10.4443788      2.1797171      1.9418166
 Standard basis: VSTO-6G (5D, 7F)
 There are    15 symmetry adapted basis functions of A   symmetry.
 There are    15 symmetry adapted basis functions of B   symmetry.
 Integral buffers will be    262144 words long.
 Regular integral format.
 Two-electron integral symmetry is turned off.
    30 basis functions,   192 primitive gaussians,    32 cartesian basis functions
    13 alpha electrons       13 beta electrons
       nuclear repulsion energy        86.7392661365 Hartrees.
 Do NDO integrals.
 One-electron integrals computed using PRISM.
 NBasis=    30 RedAO= F  NBF=    15    15
 NBsUse=    30 1.00D-04 NBFU=    15    15
 Initial guess read from the read-write file.
 B after Tr=     0.000000    0.000000    0.000000
         Rot=    1.000000    0.000000    0.000000    0.000000 Ang=   0.00 deg.
 Initial guess orbital symmetries:
       Occupied  (A) (B) (A) (B) (B) (A) (A) (A) (B) (B) (A) (A)
                 (B)
       Virtual   (A) (B) (B) (B) (A) (B) (A) (A) (A) (B) (A) (B)
                 (B) (A) (B) (A) (B)
 Requested convergence on RMS density matrix=1.00D-08 within 128 cycles.
 Requested convergence on MAX density matrix=1.00D-06.
 Requested convergence on             energy=1.00D-06.
 No special actions if energy rises.
 Overlap will be assumed to be unity.
 Keep J ints in memory in canonical form, NReq=903229.
 Fock symm off for IB=2 I1=    1 I=   16 J=    5 Cut=1.00D-07 Err=7.82D-03
 Fock matrix is not symmetric: symmetry in diagonalization turned off.
 SCF Done:  E(RPM6) = -0.421047984648E-01 A.U. after   12 cycles
             Convg  =    0.2210D-08             -V/T =  0.9964
 Variable Step   Value    
 -------- ---- -----------
     6       9    1.570796
 ---------------------------------------------------------------------------------------------------
                            Z-MATRIX (ANGSTROMS AND DEGREES)
   CD    Cent   Atom    N1       Length/X        N2       Alpha/Y        N3        Beta/Z          J
 ---------------------------------------------------------------------------------------------------
      1      1  C 
      2      2  C        1   1.514000(     1)
      3      3  H        1   1.109000(     2)      2  109.500(     8)
      4      4  H        1   1.109000(     3)      2  109.500(     9)      3  120.000(    14)      0
      5      5  Cl       1   1.790000(     4)      2  109.500(    10)      3 -120.000(    15)      0
      6      6  H        2   1.109000(     5)      1  109.500(    11)      3   90.000(    16)      0
      7      7  H        2   1.109000(     6)      1  109.500(    12)      4   90.000(    17)      0
      8      8  Cl       2   1.790000(     7)      1  109.500(    13)      5   90.000(    18)      0
 ---------------------------------------------------------------------------------------------------
                         Z-Matrix orientation:                         
 ---------------------------------------------------------------------
 Center     Atomic      Atomic             Coordinates (Angstroms)
 Number     Number       Type             X           Y           Z
 ---------------------------------------------------------------------
      1          6           0        0.000000    0.000000    0.000000
      2          6           0        0.000000    0.000000    1.514000
      3          1           0        1.045389    0.000000   -0.370192
      4          1           0       -0.522695   -0.905334   -0.370192
      5         17           0       -0.843664    1.461269   -0.597514
      6          1           0        0.000000    1.045389    1.884192
      7          1           0        0.905334   -0.522695    1.884192
      8         17           0       -1.461269   -0.843664    2.111514
 ---------------------------------------------------------------------
                    Distance matrix (angstroms):
                    1          2          3          4          5
     1  C    0.000000
     2  C    1.514000   0.000000
     3  H    1.109000   2.154766   0.000000
     4  H    1.109000   2.154766   1.810668   0.000000
     5  Cl   1.790000   2.702882   2.399064   2.399064   0.000000
     6  H    2.154766   1.109000   2.695909   3.026677   2.653976
     7  H    2.154766   1.109000   2.318420   2.695909   3.626840
     8  Cl   2.702882   1.790000   3.626840   2.653976   3.610123
                    6          7          8
     6  H    0.000000
     7  H    1.810668   0.000000
     8  Cl   2.399064   2.399064   0.000000
 Stoichiometry    C2H4Cl2
 Framework group  C2[X(C2H4Cl2)]
 Deg. of freedom    10
 Full point group                 C2      NOp   2
 Largest Abelian subgroup         C2      NOp   2
 Largest concise Abelian subgroup C2      NOp   2
                         Standard orientation:                         
 ---------------------------------------------------------------------
 Center     Atomic      Atomic             Coordinates (Angstroms)
 Number     Number       Type             X           Y           Z
 ---------------------------------------------------------------------
      1          6           0        0.372406    0.659062    0.781754
      2          6           0       -0.372406   -0.659062    0.781754
      3          1           0        0.318960    1.114465    1.791523
      4          1           0        1.433650    0.484604    0.511188
      5         17           0       -0.372406    1.766228   -0.411367
      6          1           0       -1.433650   -0.484604    0.511188
      7          1           0       -0.318960   -1.114465    1.791523
      8         17           0        0.372406   -1.766228   -0.411367
 ---------------------------------------------------------------------
 Rotational constants (GHZ):     11.4752941      2.0300234      1.8626630
 Standard basis: VSTO-6G (5D, 7F)
 There are    15 symmetry adapted basis functions of A   symmetry.
 There are    15 symmetry adapted basis functions of B   symmetry.
 Integral buffers will be    262144 words long.
 Regular integral format.
 Two-electron integral symmetry is turned off.
    30 basis functions,   192 primitive gaussians,    32 cartesian basis functions
    13 alpha electrons       13 beta electrons
       nuclear repulsion energy        86.5654997578 Hartrees.
 Do NDO integrals.
 One-electron integrals computed using PRISM.
 NBasis=    30 RedAO= F  NBF=    15    15
 NBsUse=    30 1.00D-04 NBFU=    15    15
 Initial guess read from the read-write file.
 B after Tr=     0.000000    0.000000    0.000000
         Rot=    1.000000    0.000000    0.000000    0.000000 Ang=   0.00 deg.
 Initial guess orbital symmetries:
       Occupied  (A) (B) (A) (B) (B) (A) (A) (B) (A) (B) (A) (B)
                 (A)
       Virtual   (A) (B) (B) (A) (B) (B) (A) (A) (A) (B) (A) (B)
                 (B) (A) (B) (A) (B)
 Requested convergence on RMS density matrix=1.00D-08 within 128 cycles.
 Requested convergence on MAX density matrix=1.00D-06.
 Requested convergence on             energy=1.00D-06.
 No special actions if energy rises.
 Overlap will be assumed to be unity.
 Keep J ints in memory in canonical form, NReq=903229.
 Fock symm off for IB=2 I1=    1 I=   16 J=    6 Cut=1.00D-07 Err=6.88D-03
 Fock matrix is not symmetric: symmetry in diagonalization turned off.
 SCF Done:  E(RPM6) = -0.421261684467E-01 A.U. after   12 cycles
             Convg  =    0.3031D-08             -V/T =  0.9964
 Variable Step   Value    
 -------- ---- -----------
     6      10    1.745329
 ---------------------------------------------------------------------------------------------------
                            Z-MATRIX (ANGSTROMS AND DEGREES)
   CD    Cent   Atom    N1       Length/X        N2       Alpha/Y        N3        Beta/Z          J
 ---------------------------------------------------------------------------------------------------
      1      1  C 
      2      2  C        1   1.514000(     1)
      3      3  H        1   1.109000(     2)      2  109.500(     8)
      4      4  H        1   1.109000(     3)      2  109.500(     9)      3  120.000(    14)      0
      5      5  Cl       1   1.790000(     4)      2  109.500(    10)      3 -120.000(    15)      0
      6      6  H        2   1.109000(     5)      1  109.500(    11)      3  100.000(    16)      0
      7      7  H        2   1.109000(     6)      1  109.500(    12)      4  100.000(    17)      0
      8      8  Cl       2   1.790000(     7)      1  109.500(    13)      5  100.000(    18)      0
 ---------------------------------------------------------------------------------------------------
                         Z-Matrix orientation:                         
 ---------------------------------------------------------------------
 Center     Atomic      Atomic             Coordinates (Angstroms)
 Number     Number       Type             X           Y           Z
 ---------------------------------------------------------------------
      1          6           0        0.000000    0.000000    0.000000
      2          6           0        0.000000    0.000000    1.514000
      3          1           0        1.045389    0.000000   -0.370192
      4          1           0       -0.522695   -0.905334   -0.370192
      5         17           0       -0.843664    1.461269   -0.597514
      6          1           0       -0.181530    1.029508    1.884192
      7          1           0        0.982345   -0.357544    1.884192
      8         17           0       -1.292568   -1.084594    2.111514
 ---------------------------------------------------------------------
                    Distance matrix (angstroms):
                    1          2          3          4          5
     1  C    0.000000
     2  C    1.514000   0.000000
     3  H    1.109000   2.154766   0.000000
     4  H    1.109000   2.154766   1.810668   0.000000
     5  Cl   1.790000   2.702882   2.399064   2.399064   0.000000
     6  H    2.154766   1.109000   2.765405   2.990360   2.604555
     7  H    2.154766   1.109000   2.283431   2.765405   3.577884
     8  Cl   2.702882   1.790000   3.577884   2.604555   3.744565
                    6          7          8
     6  H    0.000000
     7  H    1.810668   0.000000
     8  Cl   2.399064   2.399064   0.000000
 Stoichiometry    C2H4Cl2
 Framework group  C2[X(C2H4Cl2)]
 Deg. of freedom    10
 Full point group                 C2      NOp   2
 Largest Abelian subgroup         C2      NOp   2
 Largest concise Abelian subgroup C2      NOp   2
                         Standard orientation:                         
 ---------------------------------------------------------------------
 Center     Atomic      Atomic             Coordinates (Angstroms)
 Number     Number       Type             X           Y           Z
 ---------------------------------------------------------------------
      1          6           0        0.395227    0.645635    0.710645
      2          6           0       -0.395227   -0.645635    0.710645
      3          1           0        0.433678    1.056143    1.740153
      4          1           0        1.426331    0.448488    0.353101
      5         17           0       -0.395227    1.830092   -0.373949
      6          1           0       -1.426331   -0.448488    0.353101
      7          1           0       -0.433678   -1.056143    1.740153
      8         17           0        0.395227   -1.830092   -0.373949
 ---------------------------------------------------------------------
 Rotational constants (GHZ):     12.7684028      1.8995690      1.7889929
 Standard basis: VSTO-6G (5D, 7F)
 There are    15 symmetry adapted basis functions of A   symmetry.
 There are    15 symmetry adapted basis functions of B   symmetry.
 Integral buffers will be    262144 words long.
 Regular integral format.
 Two-electron integral symmetry is turned off.
    30 basis functions,   192 primitive gaussians,    32 cartesian basis functions
    13 alpha electrons       13 beta electrons
       nuclear repulsion energy        86.4106270990 Hartrees.
 Do NDO integrals.
 One-electron integrals computed using PRISM.
 NBasis=    30 RedAO= F  NBF=    15    15
 NBsUse=    30 1.00D-04 NBFU=    15    15
 Initial guess read from the read-write file.
 B after Tr=     0.000000    0.000000    0.000000
         Rot=    1.000000    0.000000    0.000000    0.000000 Ang=   0.00 deg.
 Initial guess orbital symmetries:
       Occupied  (A) (B) (A) (B) (A) (B) (A) (B) (A) (B) (A) (B)
                 (A)
       Virtual   (B) (A) (B) (A) (B) (B) (A) (A) (A) (B) (A) (B)
                 (B) (A) (B) (A) (B)
 Requested convergence on RMS density matrix=1.00D-08 within 128 cycles.
 Requested convergence on MAX density matrix=1.00D-06.
 Requested convergence on             energy=1.00D-06.
 No special actions if energy rises.
 Overlap will be assumed to be unity.
 Keep J ints in memory in canonical form, NReq=903229.
 Fock symm off for IB=2 I1=    1 I=   16 J=    6 Cut=1.00D-07 Err=5.97D-03
 Fock matrix is not symmetric: symmetry in diagonalization turned off.
 SCF Done:  E(RPM6) = -0.419160970072E-01 A.U. after   12 cycles
             Convg  =    0.3046D-08             -V/T =  0.9965
 Variable Step   Value    
 -------- ---- -----------
     6      11    1.919862
 ---------------------------------------------------------------------------------------------------
                            Z-MATRIX (ANGSTROMS AND DEGREES)
   CD    Cent   Atom    N1       Length/X        N2       Alpha/Y        N3        Beta/Z          J
 ---------------------------------------------------------------------------------------------------
      1      1  C 
      2      2  C        1   1.514000(     1)
      3      3  H        1   1.109000(     2)      2  109.500(     8)
      4      4  H        1   1.109000(     3)      2  109.500(     9)      3  120.000(    14)      0
      5      5  Cl       1   1.790000(     4)      2  109.500(    10)      3 -120.000(    15)      0
      6      6  H        2   1.109000(     5)      1  109.500(    11)      3  110.000(    16)      0
      7      7  H        2   1.109000(     6)      1  109.500(    12)      4  110.000(    17)      0
      8      8  Cl       2   1.790000(     7)      1  109.500(    13)      5  110.000(    18)      0
 ---------------------------------------------------------------------------------------------------
                         Z-Matrix orientation:                         
 ---------------------------------------------------------------------
 Center     Atomic      Atomic             Coordinates (Angstroms)
 Number     Number       Type             X           Y           Z
 ---------------------------------------------------------------------
      1          6           0        0.000000    0.000000    0.000000
      2          6           0        0.000000    0.000000    1.514000
      3          1           0        1.045389    0.000000   -0.370192
      4          1           0       -0.522695   -0.905334   -0.370192
      5         17           0       -0.843664    1.461269   -0.597514
      6          1           0       -0.357544    0.982345    1.884192
      7          1           0        1.029508   -0.181530    1.884192
      8         17           0       -1.084594   -1.292568    2.111514
 ---------------------------------------------------------------------
                    Distance matrix (angstroms):
                    1          2          3          4          5
     1  C    0.000000
     2  C    1.514000   0.000000
     3  H    1.109000   2.154766   0.000000
     4  H    1.109000   2.154766   1.810668   0.000000
     5  Cl   1.790000   2.702882   2.399064   2.399064   0.000000
     6  H    2.154766   1.109000   2.831160   2.944970   2.573819
     7  H    2.154766   1.109000   2.261736   2.831160   3.516593
     8  Cl   2.702882   1.790000   3.516593   2.573819   3.870466
                    6          7          8
     6  H    0.000000
     7  H    1.810668   0.000000
     8  Cl   2.399064   2.399064   0.000000
 Stoichiometry    C2H4Cl2
 Framework group  C2[X(C2H4Cl2)]
 Deg. of freedom    10
 Full point group                 C2      NOp   2
 Largest Abelian subgroup         C2      NOp   2
 Largest concise Abelian subgroup C2      NOp   2
                         Standard orientation:                         
 ---------------------------------------------------------------------
 Center     Atomic      Atomic             Coordinates (Angstroms)
 Number     Number       Type             X           Y           Z
 ---------------------------------------------------------------------
      1          6           0        0.414598    0.633370    0.634128
      2          6           0       -0.414598   -0.633370    0.634128
      3          1           0        0.541115    0.993004    1.675539
      4          1           0        1.410059    0.424201    0.192327
      5         17           0       -0.414598    1.890300   -0.333684
      6          1           0       -1.410059   -0.424201    0.192327
      7          1           0       -0.541115   -0.993004    1.675539
      8         17           0        0.414598   -1.890300   -0.333684
 ---------------------------------------------------------------------
 Rotational constants (GHZ):     14.3707602      1.7881496      1.7224000
 Standard basis: VSTO-6G (5D, 7F)
 There are    15 symmetry adapted basis functions of A   symmetry.
 There are    15 symmetry adapted basis functions of B   symmetry.
 Integral buffers will be    262144 words long.
 Regular integral format.
 Two-electron integral symmetry is turned off.
    30 basis functions,   192 primitive gaussians,    32 cartesian basis functions
    13 alpha electrons       13 beta electrons
       nuclear repulsion energy        86.2733749694 Hartrees.
 Do NDO integrals.
 One-electron integrals computed using PRISM.
 NBasis=    30 RedAO= F  NBF=    15    15
 NBsUse=    30 1.00D-04 NBFU=    15    15
 Initial guess read from the read-write file.
 B after Tr=     0.000000    0.000000    0.000000
         Rot=    1.000000    0.000000    0.000000    0.000000 Ang=   0.00 deg.
 Initial guess orbital symmetries:
       Occupied  (A) (B) (A) (B) (A) (B) (A) (B) (A) (B) (A) (B)
                 (A)
       Virtual   (B) (A) (B) (A) (B) (B) (A) (A) (B) (A) (A) (B)
                 (B) (A) (B) (A) (B)
 Requested convergence on RMS density matrix=1.00D-08 within 128 cycles.
 Requested convergence on MAX density matrix=1.00D-06.
 Requested convergence on             energy=1.00D-06.
 No special actions if energy rises.
 Overlap will be assumed to be unity.
 Keep J ints in memory in canonical form, NReq=903229.
 Fock symm off for IB=2 I1=    1 I=   16 J=    6 Cut=1.00D-07 Err=5.11D-03
 Fock matrix is not symmetric: symmetry in diagonalization turned off.
 SCF Done:  E(RPM6) = -0.417165182956E-01 A.U. after   12 cycles
             Convg  =    0.3591D-08             -V/T =  0.9965
 Variable Step   Value    
 -------- ---- -----------
     6      12    2.094395
 ---------------------------------------------------------------------------------------------------
                            Z-MATRIX (ANGSTROMS AND DEGREES)
   CD    Cent   Atom    N1       Length/X        N2       Alpha/Y        N3        Beta/Z          J
 ---------------------------------------------------------------------------------------------------
      1      1  C 
      2      2  C        1   1.514000(     1)
      3      3  H        1   1.109000(     2)      2  109.500(     8)
      4      4  H        1   1.109000(     3)      2  109.500(     9)      3  120.000(    14)      0
      5      5  Cl       1   1.790000(     4)      2  109.500(    10)      3 -120.000(    15)      0
      6      6  H        2   1.109000(     5)      1  109.500(    11)      3  120.000(    16)      0
      7      7  H        2   1.109000(     6)      1  109.500(    12)      4  120.000(    17)      0
      8      8  Cl       2   1.790000(     7)      1  109.500(    13)      5  120.000(    18)      0
 ---------------------------------------------------------------------------------------------------
                         Z-Matrix orientation:                         
 ---------------------------------------------------------------------
 Center     Atomic      Atomic             Coordinates (Angstroms)
 Number     Number       Type             X           Y           Z
 ---------------------------------------------------------------------
      1          6           0        0.000000    0.000000    0.000000
      2          6           0        0.000000    0.000000    1.514000
      3          1           0        1.045389    0.000000   -0.370192
      4          1           0       -0.522695   -0.905334   -0.370192
      5         17           0       -0.843664    1.461269   -0.597514
      6          1           0       -0.522695    0.905334    1.884192
      7          1           0        1.045389    0.000000    1.884192
      8         17           0       -0.843664   -1.461269    2.111514
 ---------------------------------------------------------------------
                    Distance matrix (angstroms):
                    1          2          3          4          5
     1  C    0.000000
     2  C    1.514000   0.000000
     3  H    1.109000   2.154766   0.000000
     4  H    1.109000   2.154766   1.810668   0.000000
     5  Cl   1.790000   2.702882   2.399064   2.399064   0.000000
     6  H    2.154766   1.109000   2.891498   2.891498   2.563387
     7  H    2.154766   1.109000   2.254384   2.891498   3.444226
     8  Cl   2.702882   1.790000   3.444226   2.563387   3.984980
                    6          7          8
     6  H    0.000000
     7  H    1.810668   0.000000
     8  Cl   2.399064   2.399064   0.000000
 Stoichiometry    C2H4Cl2
 Framework group  C2[X(C2H4Cl2)]
 Deg. of freedom    10
 Full point group                 C2      NOp   2
 Largest Abelian subgroup         C2      NOp   2
[...]
 ---------------------------------------------------------------------------------------------------
      1      1  C 
      2      2  C        1   1.514000(     1)
      3      3  H        1   1.109000(     2)      2  109.500(     8)
      4      4  H        1   1.109000(     3)      2  109.500(     9)      3  120.000(    14)      0
      5      5  Cl       1   1.790000(     4)      2  109.500(    10)      3 -120.000(    15)      0
      6      6  H        2   1.109000(     5)      1  109.500(    11)      3  340.000(    16)      0
      7      7  H        2   1.109000(     6)      1  109.500(    12)      4  340.000(    17)      0
      8      8  Cl       2   1.790000(     7)      1  109.500(    13)      5  340.000(    18)      0
 ---------------------------------------------------------------------------------------------------
                         Z-Matrix orientation:                         
 ---------------------------------------------------------------------
 Center     Atomic      Atomic             Coordinates (Angstroms)
 Number     Number       Type             X           Y           Z
 ---------------------------------------------------------------------
      1          6           0        0.000000    0.000000    0.000000
      2          6           0        0.000000    0.000000    1.514000
      3          1           0        1.045389    0.000000   -0.370192
      4          1           0       -0.522695   -0.905334   -0.370192
      5         17           0       -0.843664    1.461269   -0.597514
      6          1           0        0.982345   -0.357544    1.884192
      7          1           0       -0.800815   -0.671963    1.884192
      8         17           0       -0.293001    1.661694    2.111514
 ---------------------------------------------------------------------
                    Distance matrix (angstroms):
                    1          2          3          4          5
     1  C    0.000000
     2  C    1.514000   0.000000
     3  H    1.109000   2.154766   0.000000
     4  H    1.109000   2.154766   1.810668   0.000000
     5  Cl   1.790000   2.702882   2.399064   2.399064   0.000000
     6  H    2.154766   1.109000   2.283431   2.765405   3.577884
     7  H    2.154766   1.109000   2.990360   2.283431   3.272825
     8  Cl   2.702882   1.790000   3.272825   3.577884   2.771685
                    6          7          8
     6  H    0.000000
     7  H    1.810668   0.000000
     8  Cl   2.399064   2.399064   0.000000
 Stoichiometry    C2H4Cl2
 Framework group  C2[X(C2H4Cl2)]
 Deg. of freedom    10
 Full point group                 C2      NOp   2
 Largest Abelian subgroup         C2      NOp   2
 Largest concise Abelian subgroup C2      NOp   2
                         Standard orientation:                         
 ---------------------------------------------------------------------
 Center     Atomic      Atomic             Coordinates (Angstroms)
 Number     Number       Type             X           Y           Z
 ---------------------------------------------------------------------
      1          6           0       -0.104047    0.749815    1.088772
      2          6           0        0.104047   -0.749815    1.088772
      3          1           0       -1.127950    0.981474    1.446316
      4          1           0        0.638286    1.226563    1.760735
      5         17           0        0.104047    1.381931   -0.572922
      6          1           0       -0.638286   -1.226563    1.760735
      7          1           0        1.127950   -0.981474    1.446316
      8         17           0       -0.104047   -1.381931   -0.572922
 ---------------------------------------------------------------------
 Rotational constants (GHZ):      7.7368421      3.2306540      2.3647384
 Standard basis: VSTO-6G (5D, 7F)
 There are    15 symmetry adapted basis functions of A   symmetry.
 There are    15 symmetry adapted basis functions of B   symmetry.
 Integral buffers will be    262144 words long.
 Regular integral format.
 Two-electron integral symmetry is turned off.
    30 basis functions,   192 primitive gaussians,    32 cartesian basis functions
    13 alpha electrons       13 beta electrons
       nuclear repulsion energy        87.9184416401 Hartrees.
 Do NDO integrals.
 One-electron integrals computed using PRISM.
 NBasis=    30 RedAO= F  NBF=    15    15
 NBsUse=    30 1.00D-04 NBFU=    15    15
 Initial guess read from the read-write file.
 B after Tr=     0.000000    0.000000    0.000000
         Rot=    1.000000    0.000000    0.000000    0.000000 Ang=   0.00 deg.
 Initial guess orbital symmetries:
       Occupied  (A) (B) (A) (B) (B) (A) (A) (A) (B) (A) (B) (A)
                 (B)
       Virtual   (A) (B) (B) (B) (A) (A) (B) (A) (B) (A) (B) (A)
                 (A) (B) (B) (B) (A)
 Requested convergence on RMS density matrix=1.00D-08 within 128 cycles.
 Requested convergence on MAX density matrix=1.00D-06.
 Requested convergence on             energy=1.00D-06.
 No special actions if energy rises.
 Overlap will be assumed to be unity.
 Keep J ints in memory in canonical form, NReq=903229.
 Fock symm off for IB=2 I1=    1 I=   16 J=    5 Cut=1.00D-07 Err=1.23D-02
 Fock matrix is not symmetric: symmetry in diagonalization turned off.
 SCF Done:  E(RPM6) = -0.348269475949E-01 A.U. after   12 cycles
             Convg  =    0.4852D-08             -V/T =  0.9971
 Variable Step   Value    
 -------- ---- -----------
     6      35    6.108652
 ---------------------------------------------------------------------------------------------------
                            Z-MATRIX (ANGSTROMS AND DEGREES)
   CD    Cent   Atom    N1       Length/X        N2       Alpha/Y        N3        Beta/Z          J
 ---------------------------------------------------------------------------------------------------
      1      1  C 
      2      2  C        1   1.514000(     1)
      3      3  H        1   1.109000(     2)      2  109.500(     8)
      4      4  H        1   1.109000(     3)      2  109.500(     9)      3  120.000(    14)      0
      5      5  Cl       1   1.790000(     4)      2  109.500(    10)      3 -120.000(    15)      0
      6      6  H        2   1.109000(     5)      1  109.500(    11)      3  350.000(    16)      0
      7      7  H        2   1.109000(     6)      1  109.500(    12)      4  350.000(    17)      0
      8      8  Cl       2   1.790000(     7)      1  109.500(    13)      5  350.000(    18)      0
 ---------------------------------------------------------------------------------------------------
                         Z-Matrix orientation:                         
 ---------------------------------------------------------------------
 Center     Atomic      Atomic             Coordinates (Angstroms)
 Number     Number       Type             X           Y           Z
 ---------------------------------------------------------------------
      1          6           0        0.000000    0.000000    0.000000
      2          6           0        0.000000    0.000000    1.514000
      3          1           0        1.045389    0.000000   -0.370192
      4          1           0       -0.522695   -0.905334   -0.370192
      5         17           0       -0.843664    1.461269   -0.597514
      6          1           0        1.029508   -0.181530    1.884192
      7          1           0       -0.671963   -0.800815    1.884192
      8         17           0       -0.577100    1.585570    2.111514
 ---------------------------------------------------------------------
                    Distance matrix (angstroms):
                    1          2          3          4          5
     1  C    0.000000
     2  C    1.514000   0.000000
     3  H    1.109000   2.154766   0.000000
     4  H    1.109000   2.154766   1.810668   0.000000
     5  Cl   1.790000   2.702882   2.399064   2.399064   0.000000
     6  H    2.154766   1.109000   2.261736   2.831160   3.516593
     7  H    2.154766   1.109000   2.944970   2.261736   3.362346
     8  Cl   2.702882   1.790000   3.362346   3.516593   2.724948
                    6          7          8
     6  H    0.000000
     7  H    1.810668   0.000000
     8  Cl   2.399064   2.399064   0.000000
 Stoichiometry    C2H4Cl2
 Framework group  C2[X(C2H4Cl2)]
 Deg. of freedom    10
 Full point group                 C2      NOp   2
 Largest Abelian subgroup         C2      NOp   2
 Largest concise Abelian subgroup C2      NOp   2
                         Standard orientation:                         
 ---------------------------------------------------------------------
 Center     Atomic      Atomic             Coordinates (Angstroms)
 Number     Number       Type             X           Y           Z
 ---------------------------------------------------------------------
      1          6           0       -0.052595    0.755171    1.101361
      2          6           0        0.052595   -0.755171    1.101361
      3          1           0       -1.023471    1.058641    1.543161
      4          1           0        0.775948    1.183965    1.700971
      5         17           0        0.052595    1.361459   -0.579547
      6          1           0       -0.775948   -1.183965    1.700971
      7          1           0        1.023471   -1.058641    1.543161
      8         17           0       -0.052595   -1.361459   -0.579547
 ---------------------------------------------------------------------
 Rotational constants (GHZ):      7.6410732      3.3250700      2.3934388
 Standard basis: VSTO-6G (5D, 7F)
 There are    15 symmetry adapted basis functions of A   symmetry.
 There are    15 symmetry adapted basis functions of B   symmetry.
 Integral buffers will be    262144 words long.
 Regular integral format.
 Two-electron integral symmetry is turned off.
    30 basis functions,   192 primitive gaussians,    32 cartesian basis functions
    13 alpha electrons       13 beta electrons
       nuclear repulsion energy        88.0220285009 Hartrees.
 Do NDO integrals.
 One-electron integrals computed using PRISM.
 NBasis=    30 RedAO= F  NBF=    15    15
 NBsUse=    30 1.00D-04 NBFU=    15    15
 Initial guess read from the read-write file.
 B after Tr=     0.000000    0.000000    0.000000
         Rot=    1.000000    0.000000    0.000000    0.000000 Ang=   0.00 deg.
 Initial guess orbital symmetries:
       Occupied  (A) (B) (A) (B) (B) (A) (A) (A) (B) (A) (B) (A)
                 (B)
       Virtual   (A) (B) (B) (B) (A) (A) (B) (A) (B) (A) (B) (A)
                 (A) (B) (B) (B) (A)
 Requested convergence on RMS density matrix=1.00D-08 within 128 cycles.
 Requested convergence on MAX density matrix=1.00D-06.
 Requested convergence on             energy=1.00D-06.
 No special actions if energy rises.
 Overlap will be assumed to be unity.
 Keep J ints in memory in canonical form, NReq=903229.
 Fock symm off for IB=2 I1=    1 I=   16 J=    5 Cut=1.00D-07 Err=1.29D-02
 Fock matrix is not symmetric: symmetry in diagonalization turned off.
 SCF Done:  E(RPM6) = -0.329154578212E-01 A.U. after   12 cycles
             Convg  =    0.3880D-08             -V/T =  0.9972
 Variable Step   Value    
 -------- ---- -----------
     6      36    6.283185
 ---------------------------------------------------------------------------------------------------
                            Z-MATRIX (ANGSTROMS AND DEGREES)
   CD    Cent   Atom    N1       Length/X        N2       Alpha/Y        N3        Beta/Z          J
 ---------------------------------------------------------------------------------------------------
      1      1  C 
      2      2  C        1   1.514000(     1)
      3      3  H        1   1.109000(     2)      2  109.500(     8)
      4      4  H        1   1.109000(     3)      2  109.500(     9)      3  120.000(    14)      0
      5      5  Cl       1   1.790000(     4)      2  109.500(    10)      3 -120.000(    15)      0
      6      6  H        2   1.109000(     5)      1  109.500(    11)      3  360.000(    16)      0
      7      7  H        2   1.109000(     6)      1  109.500(    12)      4  360.000(    17)      0
      8      8  Cl       2   1.790000(     7)      1  109.500(    13)      5  360.000(    18)      0
 ---------------------------------------------------------------------------------------------------
                         Z-Matrix orientation:                         
 ---------------------------------------------------------------------
 Center     Atomic      Atomic             Coordinates (Angstroms)
 Number     Number       Type             X           Y           Z
 ---------------------------------------------------------------------
      1          6           0        0.000000    0.000000    0.000000
      2          6           0        0.000000    0.000000    1.514000
      3          1           0        1.045389    0.000000   -0.370192
      4          1           0       -0.522695   -0.905334   -0.370192
      5         17           0       -0.843664    1.461269   -0.597514
      6          1           0        1.045389    0.000000    1.884192
      7          1           0       -0.522695   -0.905334    1.884192
      8         17           0       -0.843664    1.461269    2.111514
 ---------------------------------------------------------------------
                    Distance matrix (angstroms):
                    1          2          3          4          5
     1  C    0.000000
     2  C    1.514000   0.000000
     3  H    1.109000   2.154766   0.000000
     4  H    1.109000   2.154766   1.810668   0.000000
     5  Cl   1.790000   2.702882   2.399064   2.399064   0.000000
     6  H    2.154766   1.109000   2.254384   2.891498   3.444226
     7  H    2.154766   1.109000   2.891498   2.254384   3.444226
     8  Cl   2.702882   1.790000   3.444226   3.444226   2.709029
                    6          7          8
     6  H    0.000000
     7  H    1.810668   0.000000
     8  Cl   2.399064   2.399064   0.000000
 Stoichiometry    C2H4Cl2
 Framework group  C2V[SGV(C2Cl2),X(H4)]
 Deg. of freedom     6
 Full point group                 C2V     NOp   4
 Omega: Change in point group or standard orientation.

 Old FWG=C02  [X(C2H4Cl2)]
 New FWG=C02V [SGV(C2Cl2),X(H4)]
 Largest Abelian subgroup         C2V     NOp   4
 Largest concise Abelian subgroup C2V     NOp   4
                         Standard orientation:                         
 ---------------------------------------------------------------------
 Center     Atomic      Atomic             Coordinates (Angstroms)
 Number     Number       Type             X           Y           Z
 ---------------------------------------------------------------------
      1          6           0        0.000000    0.757000    1.105568
      2          6           0        0.000000   -0.757000    1.105568
      3          1           0       -0.905334    1.127192    1.628262
      4          1           0        0.905334    1.127192    1.628262
      5         17           0        0.000000    1.354514   -0.581761
      6          1           0       -0.905334   -1.127192    1.628262
      7          1           0        0.905334   -1.127192    1.628262
      8         17           0        0.000000   -1.354514   -0.581761
 ---------------------------------------------------------------------
 Rotational constants (GHZ):      7.6100986      3.3581184      2.4031868
 Standard basis: VSTO-6G (5D, 7F)
 There are    10 symmetry adapted basis functions of A1  symmetry.
 There are     5 symmetry adapted basis functions of A2  symmetry.
 There are     5 symmetry adapted basis functions of B1  symmetry.
 There are    10 symmetry adapted basis functions of B2  symmetry.
 Integral buffers will be    262144 words long.
 Regular integral format.
 Two-electron integral symmetry is turned off.
    30 basis functions,   192 primitive gaussians,    32 cartesian basis functions
    13 alpha electrons       13 beta electrons
       nuclear repulsion energy        88.0582167204 Hartrees.
 Do NDO integrals.
 One-electron integrals computed using PRISM.
 NBasis=    30 RedAO= F  NBF=    10     5     5    10
 NBsUse=    30 1.00D-04 NBFU=    10     5     5    10
 Initial guess read from the read-write file.
 B after Tr=     0.000000    0.000000    0.000000
         Rot=    1.000000    0.000000    0.000000    0.000000 Ang=   0.00 deg.
 Initial guess orbital symmetries:
       Occupied  (B2) (?A) (A1) (?A) (?A) (B2) (B2) (B2) (?A) (B2)
                 (?A) (B2) (?A)
       Virtual   (B2) (?A) (?A) (?A) (B2) (B2) (?A) (?B) (?C) (?B)
                 (?C) (?B) (?B) (?C) (?C) (?C) (?B)
 Requested convergence on RMS density matrix=1.00D-08 within 128 cycles.
 Requested convergence on MAX density matrix=1.00D-06.
 Requested convergence on             energy=1.00D-06.
 No special actions if energy rises.
 Overlap will be assumed to be unity.
 Keep J ints in memory in canonical form, NReq=903229.
 An orbital has undefined symmetry, so N**3 symmetry is turned off.
 SCF Done:  E(RPM6) = -0.321578327137E-01 A.U. after   12 cycles
             Convg  =    0.2187D-08             -V/T =  0.9973
 Scan completed.

 Summary of the potential surface scan:
   N      D2          SCF    
 ----  ---------  -----------
    1     0.0000     -0.03216
    2    10.0000     -0.03292
    3    20.0000     -0.03483
    4    30.0000     -0.03707
    5    40.0000     -0.03893
    6    50.0000     -0.04021
    7    60.0000     -0.04110
    8    70.0000     -0.04175
    9    80.0000     -0.04210
   10    90.0000     -0.04213
   11   100.0000     -0.04192
   12   110.0000     -0.04172
   13   120.0000     -0.04177
   14   130.0000     -0.04222
   15   140.0000     -0.04303
   16   150.0000     -0.04404
   17   160.0000     -0.04502
   18   170.0000     -0.04572
   19   180.0000     -0.04597
   20   190.0000     -0.04572
   21   200.0000     -0.04502
   22   210.0000     -0.04404
   23   220.0000     -0.04303
   24   230.0000     -0.04222
   25   240.0000     -0.04177
   26   250.0000     -0.04172
   27   260.0000     -0.04192
   28   270.0000     -0.04213
   29   280.0000     -0.04210
   30   290.0000     -0.04175
   31   300.0000     -0.04110
   32   310.0000     -0.04021
   33   320.0000     -0.03893
   34   330.0000     -0.03707
   35   340.0000     -0.03483
   36   350.0000     -0.03292
   37   360.0000     -0.03216
 ----  ---------  -----------
  
 1|1|UNPC-PC105322|Scan|RPM6|ZDO|C2H4Cl2|CHAPMANNAT|05-Apr-2023|1||# pm
 6 scan||C2H4Cl2 Dihedral Angle||0,1|C|C,1,R1|H,1,R2,2,A|H,1,R2,2,A,3,D
 1,0|Cl,1,R3,2,A,3,-D1,0|H,2,R2,1,A,3,D2,0|H,2,R2,1,A,4,D2,0|Cl,2,R3,1,
 A,5,D2,0||R1=1.514|R2=1.109|R3=1.79|A=109.5|D1=120.|D2=0.,s,36,10.||Ve
 rsion=IA32W-G09RevB.01|HF=-0.0321578,-0.0329155,-0.0348269,-0.0370686,
 -0.0389308,-0.0402149,-0.0411029,-0.041746,-0.0421048,-0.0421262,-0.04
 19161,-0.0417165,-0.0417724,-0.0422175,-0.0430283,-0.044042,-0.0450184
 ,-0.0457186,-0.0459724,-0.0457186,-0.0450184,-0.044042,-0.0430283,-0.0
 422175,-0.0417724,-0.0417165,-0.0419161,-0.0421262,-0.0421048,-0.04174
 6,-0.0411029,-0.0402149,-0.0389308,-0.0370686,-0.0348269,-0.0329155,-0
 .0321578|RMSD=9.053e-009,3.516e-009,3.561e-009,4.790e-009,4.039e-009,4
 .568e-009,1.996e-009,2.257e-009,2.210e-009,3.031e-009,3.046e-009,3.591
 e-009,4.014e-009,4.010e-009,4.057e-009,4.861e-009,4.401e-009,4.904e-00
 9,3.707e-009,2.689e-009,3.136e-009,5.191e-009,5.258e-009,4.965e-009,4.
 587e-009,3.614e-009,2.662e-009,2.246e-009,2.497e-009,2.674e-009,2.782e
 -009,3.666e-009,4.266e-009,4.984e-009,4.852e-009,3.880e-009,2.187e-009
 |PG=C02V [SGV(C2Cl2),X(H4)]||@


 THE WISE MAN HAS THE POWER TO REASON AWAY
 WHAT A FOOL BELIEVES.
                     - DOOBIE BROTHERS
 Job cpu time:  0 days  0 hours  0 minutes 13.0 seconds.
 File lengths (MBytes):  RWF=      5 Int=      0 D2E=      0 Chk=      2 Scr=      1
 Normal termination of Gaussian 09 at Wed Apr 05 11:29:59 2023.
