 Entering Link 1 = C:\G09W\l1.exe PID=      6000.
  
 Copyright (c) 1988,1990,1992,1993,1995,1998,2003,2009,2010,
            Gaussian, Inc.  All Rights Reserved.
  
 This is part of the Gaussian(R) 09 program.  It is based on
 the Gaussian(R) 03 system (copyright 2003, Gaussian, Inc.),
 the Gaussian(R) 98 system (copyright 1998, Gaussian, Inc.),
 the Gaussian(R) 94 system (copyright 1995, Gaussian, Inc.),
 the Gaussian 92(TM) system (copyright 1992, Gaussian, Inc.),
 the Gaussian 90(TM) system (copyright 1990, Gaussian, Inc.),
 the Gaussian 88(TM) system (copyright 1988, Gaussian, Inc.),
 the Gaussian 86(TM) system (copyright 1986, Carnegie Mellon
 University), and the Gaussian 82(TM) system (copyright 1983,
 Carnegie Mellon University). Gaussian is a federally registered
 trademark of Gaussian, Inc.
  
 This software contains proprietary and confidential information,
 including trade secrets, belonging to Gaussian, Inc.
  
 This software is provided under written license and may be
 used, copied, transmitted, or stored only in accord with that
 written license.
  
 The following legend is applicable only to US Government
 contracts under FAR:
  
                    RESTRICTED RIGHTS LEGEND
  
 Use, reproduction and disclosure by the US Government is
 subject to restrictions as set forth in subparagraphs (a)
 and (c) of the Commercial Computer Software - Restricted
 Rights clause in FAR 52.227-19.
  
 Gaussian, Inc.
 340 Quinnipiac St., Bldg. 40, Wallingford CT 06492
  
  
 ---------------------------------------------------------------
 Warning -- This program may not be used in any manner that
 competes with the business of Gaussian, Inc. or will provide
 assistance to any competitor of Gaussian, Inc.  The licensee
 of this program is prohibited from giving any competitor of
 Gaussian, Inc. access to this program.  By using this program,
 the user acknowledges that Gaussian, Inc. is engaged in the
 business of creating and licensing software in the field of
 computational chemistry and represents and warrants to the
 licensee that it is not a competitor of Gaussian, Inc. and that
 it will not use this program in any manner prohibited above.
 ---------------------------------------------------------------
  

 Cite this work as:
 Gaussian 09, Revision B.01,
 M. J. Frisch, G. W. Trucks, H. B. Schlegel, G. E. Scuseria, 
 M. A. Robb, J. R. Cheeseman, G. Scalmani, V. Barone, B. Mennucci, 
 G. A. Petersson, H. Nakatsuji, M. Caricato, X. Li, H. P. Hratchian, 
 A. F. Izmaylov, J. Bloino, G. Zheng, J. L. Sonnenberg, M. Hada, 
 M. Ehara, K. Toyota, R. Fukuda, J. Hasegawa, M. Ishida, T. Nakajima, 
 Y. Honda, O. Kitao, H. Nakai, T. Vreven, J. A. Montgomery, Jr., 
 J. E. Peralta, F. Ogliaro, M. Bearpark, J. J. Heyd, E. Brothers, 
 K. N. Kudin, V. N. Staroverov, T. Keith, R. Kobayashi, J. Normand, 
 K. Raghavachari, A. Rendell, J. C. Burant, S. S. Iyengar, J. Tomasi, 
 M. Cossi, N. Rega, J. M. Millam, M. Klene, J. E. Knox, J. B. Cross, 
 V. Bakken, C. Adamo, J. Jaramillo, R. Gomperts, R. E. Stratmann, 
 O. Yazyev, A. J. Austin, R. Cammi, C. Pomelli, J. W. Ochterski, 
 R. L. Martin, K. Morokuma, V. G. Zakrzewski, G. A. Voth, 
 P. Salvador, J. J. Dannenberg, S. Dapprich, A. D. Daniels, 
 O. Farkas, J. B. Foresman, J. V. Ortiz, J. Cioslowski, 
 and D. J. Fox, Gaussian, Inc., Wallingford CT, 2010.
 
 ******************************************
 Gaussian 09:  IA32W-G09RevB.01 12-Aug-2010
                17-Apr-2023 
 ******************************************
 --------------------
 # opt b3lyp/6-31G(d)
 --------------------
 1/14=-1,18=20,19=15,26=3,38=1/1,3;
 2/9=110,12=2,17=6,18=5,40=1/2;
 3/5=1,6=6,7=1,11=2,16=1,25=1,30=1,71=1,74=-5/1,2,3;
 4//1;
 5/5=2,38=5/2;
 6/7=2,8=2,9=2,10=2,28=1/1;
 7//1,2,3,16;
 1/14=-1,18=20,19=15/3(2);
 2/9=110/2;
 99//99;
 2/9=110/2;
 3/5=1,6=6,7=1,11=2,16=1,25=1,30=1,71=1,74=-5/1,2,3;
 4/5=5,16=3/1;
 5/5=2,38=5/2;
 7//1,2,3,16;
 1/14=-1,18=20,19=15/3(-5);
 2/9=110/2;
 6/7=2,8=2,9=2,10=2,19=2,28=1/1;
 99/9=1/99;
 ----------
 H3+ Linear
 ----------
 Symbolic Z-matrix:
 Charge =  1 Multiplicity = 1
 H
 H                    1    R
 H                    1    R        2     60. 
       Variables:
  R                     0.74                     
 

 GradGradGradGradGradGradGradGradGradGradGradGradGradGradGradGradGradGrad
 Berny optimization.
 Initialization pass.
                           ----------------------------
                           !    Initial Parameters    !
                           ! (Angstroms and Degrees)  !
 --------------------------                            --------------------------
 ! Name  Definition              Value          Derivative Info.                !
 --------------------------------------------------------------------------------
 ! R1    R(1,2)                  0.74           estimate D2E/DX2                !
 ! R2    R(1,3)                  0.74           estimate D2E/DX2                !
 ! R3    R(2,3)                  0.74           estimate D2E/DX2                !
 --------------------------------------------------------------------------------
 Trust Radius=3.00D-01 FncErr=1.00D-07 GrdErr=1.00D-06
 Number of steps in this run=     20 maximum allowed number of steps=    100.
 GradGradGradGradGradGradGradGradGradGradGradGradGradGradGradGradGradGrad

                          Input orientation:                          
 ---------------------------------------------------------------------
 Center     Atomic      Atomic             Coordinates (Angstroms)
 Number     Number       Type             X           Y           Z
 ---------------------------------------------------------------------
      1          1           0        0.000000    0.000000    0.000000
      2          1           0        0.000000    0.000000    0.740000
      3          1           0        0.640859    0.000000    0.370000
 ---------------------------------------------------------------------
                    Distance matrix (angstroms):
                    1          2          3
     1  H    0.000000
     2  H    0.740000   0.000000
     3  H    0.740000   0.740000   0.000000
 Stoichiometry    H3(1+)
 Framework group  D3H[3C2(H)]
 Deg. of freedom     1
 Full point group                 D3H     NOp  12
 Largest Abelian subgroup         C2V     NOp   4
 Largest concise Abelian subgroup C2      NOp   2
                         Standard orientation:                         
 ---------------------------------------------------------------------
 Center     Atomic      Atomic             Coordinates (Angstroms)
 Number     Number       Type             X           Y           Z
 ---------------------------------------------------------------------
      1          1           0        0.000000    0.427239    0.000000
      2          1           0        0.370000   -0.213620    0.000000
      3          1           0       -0.370000   -0.213620    0.000000
 ---------------------------------------------------------------------
 Rotational constants (GHZ):   1831.4649389   1831.4649389    915.7324695
 Standard basis: 6-31G(d) (6D, 7F)
 There are     4 symmetry adapted basis functions of A1  symmetry.
 There are     0 symmetry adapted basis functions of A2  symmetry.
 There are     2 symmetry adapted basis functions of B1  symmetry.
 There are     0 symmetry adapted basis functions of B2  symmetry.
 Integral buffers will be    262144 words long.
 Raffenetti 2 integral format.
 Two-electron integral symmetry is turned on.
     6 basis functions,    12 primitive gaussians,     6 cartesian basis functions
     1 alpha electrons        1 beta electrons
       nuclear repulsion energy         2.1453130078 Hartrees.
 NAtoms=    3 NActive=    3 NUniq=    1 SFac= 4.00D+00 NAtFMM=   50 NAOKFM=F Big=F
 One-electron integrals computed using PRISM.
 NBasis=     6 RedAO= T  NBF=     4     0     2     0
 NBsUse=     6 1.00D-06 NBFU=     4     0     2     0
 Harris functional with IExCor=  402 diagonalized for initial guess.
 ExpMin= 1.61D-01 ExpMax= 1.87D+01 ExpMxC= 1.87D+01 IAcc=1 IRadAn=         1 AccDes= 0.00D+00
 HarFok:  IExCor=  402 AccDes= 0.00D+00 IRadAn=         1 IDoV= 1
 ScaDFX=  1.000000  1.000000  1.000000  1.000000
 FoFCou: FMM=F IPFlag=           0 FMFlag=      100000 FMFlg1=           0
         NFxFlg=           0 DoJE=T BraDBF=F KetDBF=T FulRan=T
         Omega=  0.000000  0.000000  1.000000  0.000000  0.000000 ICntrl=     500 IOpCl=  0
         NMat0=    1 NMatS0=    1 NMatT0=    0 NMatD0=    1 NMtDS0=    0 NMtDT0=    0
         I1Cent=           4 NGrid=           0.
 Petite list used in FoFCou.
 Initial guess orbital symmetries:
       Occupied  (A1')
       Virtual   (E') (E') (A1') (E') (E')
 The electronic state of the initial guess is 1-A1'.
 Requested convergence on RMS density matrix=1.00D-08 within 128 cycles.
 Requested convergence on MAX density matrix=1.00D-06.
 Requested convergence on             energy=1.00D-06.
 No special actions if energy rises.
 Keep R1 ints in memory in canonical form, NReq=882264.
 Integral accuracy reduced to 1.0D-05 until final iterations.
 Initial convergence to 1.0D-05 achieved.  Increase integral accuracy.
 SCF Done:  E(RB3LYP) =  -1.30968061178     A.U. after    6 cycles
             Convg  =    0.6297D-13             -V/T =  1.8634

 **********************************************************************

            Population analysis using the SCF density.

 **********************************************************************

 Orbital symmetries:
       Occupied  (A1')
       Virtual   (E') (E') (A1') (E') (E')
 The electronic state is 1-A1'.
 Alpha  occ. eigenvalues --   -1.13986
 Alpha virt. eigenvalues --   -0.30421  -0.30421   0.06165   0.59992   0.59992
          Condensed to atoms (all electrons):
              1          2          3
     1  H    0.318766   0.173950   0.173950
     2  H    0.173950   0.318766   0.173950
     3  H    0.173950   0.173950   0.318766
 Mulliken atomic charges:
              1
     1  H    0.333333
     2  H    0.333333
     3  H    0.333333
 Sum of Mulliken atomic charges =   1.00000
 Mulliken charges with hydrogens summed into heavy atoms:
              1
 Sum of Mulliken charges with hydrogens summed into heavy atoms =   1.00000
 Electronic spatial extent (au):  <R**2>=              3.6309
 Charge=              1.0000 electrons
 Dipole moment (field-independent basis, Debye):
    X=              0.0000    Y=              0.0000    Z=              0.0000  Tot=              0.0000
 Quadrupole moment (field-independent basis, Debye-Ang):
   XX=             -0.5120   YY=             -0.5120   ZZ=             -1.2295
   XY=              0.0000   XZ=              0.0000   YZ=              0.0000
 Traceless Quadrupole moment (field-independent basis, Debye-Ang):
   XX=              0.2392   YY=              0.2392   ZZ=             -0.4783
   XY=              0.0000   XZ=              0.0000   YZ=              0.0000
 Octapole moment (field-independent basis, Debye-Ang**2):
  XXX=              0.0000  YYY=              0.1831  ZZZ=              0.0000  XYY=              0.0000
  XXY=             -0.1831  XXZ=              0.0000  XZZ=              0.0000  YZZ=              0.0000
  YYZ=              0.0000  XYZ=              0.0000
 Hexadecapole moment (field-independent basis, Debye-Ang**3):
 XXXX=             -1.0139 YYYY=             -1.0139 ZZZZ=             -0.6923 XXXY=              0.0000
 XXXZ=              0.0000 YYYX=              0.0000 YYYZ=              0.0000 ZZZX=              0.0000
 ZZZY=              0.0000 XXYY=             -0.3380 XXZZ=             -0.3029 YYZZ=             -0.3029
 XXYZ=              0.0000 YYXZ=              0.0000 ZZXY=              0.0000
 N-N= 2.145313007797D+00 E-N=-5.677261633835D+00  KE= 1.516918496522D+00
 Symmetry A1   KE= 1.516918496522D+00
 Symmetry A2   KE= 0.000000000000D+00
 Symmetry B1   KE=-9.694492366685D-17
 Symmetry B2   KE= 0.000000000000D+00
 Calling FoFJK, ICntrl=      2127 FMM=F ISym2X=1 I1Cent= 0 IOpClX= 0 NMat=1 NMatS=1 NMatT=0.
 ***** Axes restored to original set *****
 -------------------------------------------------------------------
 Center     Atomic                   Forces (Hartrees/Bohr)
 Number     Number              X              Y              Z
 -------------------------------------------------------------------
      1        1          -0.052467964    0.000000000   -0.090877179
      2        1          -0.052467964    0.000000000    0.090877179
      3        1           0.104935927    0.000000000    0.000000000
 -------------------------------------------------------------------
 Cartesian Forces:  Max     0.104935927 RMS     0.060584786

 GradGradGradGradGradGradGradGradGradGradGradGradGradGradGradGradGradGrad
 Berny optimization.
 Internal  Forces:  Max     0.060584786 RMS     0.060584786
 Search for a local minimum.
 Step number   1 out of a maximum of   20
 All quantities printed in internal units (Hartrees-Bohrs-Radians)
 Mixed Optimization -- RFO/linear search
 Second derivative matrix not updated -- first step.
 The second derivative matrix:
                          R1        R2        R3
           R1           0.39139
           R2           0.00000   0.39139
           R3           0.00000   0.00000   0.39139
 ITU=  0
     Eigenvalues ---    0.39139   0.39139   0.39139
 RFO step:  Lambda=-2.63589801D-02 EMin= 3.91394209D-01
 Linear search not attempted -- first point.
 Iteration  1 RMS(Cart)=  0.08373040 RMS(Int)=  0.00000000
 Iteration  2 RMS(Cart)=  0.00000000 RMS(Int)=  0.00000000
 ClnCor:  largest displacement from symmetrization is 1.15D-15 for atom     2.
 Variable       Old X    -DE/DX   Delta X   Delta X   Delta X     New X
                                 (Linear)    (Quad)   (Total)
    R1        1.39840   0.06058   0.00000   0.14503   0.14503   1.54342
    R2        1.39840   0.06058   0.00000   0.14503   0.14503   1.54342
    R3        1.39840   0.06058   0.00000   0.14503   0.14503   1.54342
         Item               Value     Threshold  Converged?
 Maximum Force            0.060585     0.000450     NO 
 RMS     Force            0.060585     0.000300     NO 
 Maximum Displacement     0.083730     0.001800     NO 
 RMS     Displacement     0.083730     0.001200     NO 
 Predicted change in Energy=-1.401108D-02
 GradGradGradGradGradGradGradGradGradGradGradGradGradGradGradGradGradGrad

                          Input orientation:                          
 ---------------------------------------------------------------------
 Center     Atomic      Atomic             Coordinates (Angstroms)
 Number     Number       Type             X           Y           Z
 ---------------------------------------------------------------------
      1          1           0       -0.022154    0.000000   -0.038372
      2          1           0       -0.022154    0.000000    0.778372
      3          1           0        0.685167    0.000000    0.370000
 ---------------------------------------------------------------------
                    Distance matrix (angstroms):
                    1          2          3
     1  H    0.000000
     2  H    0.816744   0.000000
     3  H    0.816744   0.816744   0.000000
 Stoichiometry    H3(1+)
 Framework group  D3H[3C2(H)]
 Deg. of freedom     1
 Full point group                 D3H     NOp  12
 Largest Abelian subgroup         C2V     NOp   4
 Largest concise Abelian subgroup C2      NOp   2
                         Standard orientation:                         
 ---------------------------------------------------------------------
 Center     Atomic      Atomic             Coordinates (Angstroms)
 Number     Number       Type             X           Y           Z
 ---------------------------------------------------------------------
      1          1           0        0.000000    0.471547    0.000000
      2          1           0        0.408372   -0.235774    0.000000
      3          1           0       -0.408372   -0.235774    0.000000
 ---------------------------------------------------------------------
 Rotational constants (GHZ):   1503.4536671   1503.4536671    751.7268336
 Standard basis: 6-31G(d) (6D, 7F)
 There are     4 symmetry adapted basis functions of A1  symmetry.
 There are     0 symmetry adapted basis functions of A2  symmetry.
 There are     2 symmetry adapted basis functions of B1  symmetry.
 There are     0 symmetry adapted basis functions of B2  symmetry.
 Integral buffers will be    262144 words long.
 Raffenetti 2 integral format.
 Two-electron integral symmetry is turned on.
     6 basis functions,    12 primitive gaussians,     6 cartesian basis functions
     1 alpha electrons        1 beta electrons
       nuclear repulsion energy         1.9437320058 Hartrees.
 NAtoms=    3 NActive=    3 NUniq=    1 SFac= 4.00D+00 NAtFMM=   50 NAOKFM=F Big=F
 One-electron integrals computed using PRISM.
 NBasis=     6 RedAO= T  NBF=     4     0     2     0
 NBsUse=     6 1.00D-06 NBFU=     4     0     2     0
 Initial guess read from the read-write file.
 B after Tr=     0.000000    0.000000    0.000000
         Rot=    1.000000    0.000000    0.000000    0.000000 Ang=   0.00 deg.
 Initial guess orbital symmetries:
       Occupied  (A1')
       Virtual   (E') (E') (A1') (E') (E')
 Harris functional with IExCor=  402 diagonalized for initial guess.
 ExpMin= 1.61D-01 ExpMax= 1.87D+01 ExpMxC= 1.87D+01 IAcc=1 IRadAn=         1 AccDes= 0.00D+00
 HarFok:  IExCor=  402 AccDes= 0.00D+00 IRadAn=         1 IDoV= 1
 ScaDFX=  1.000000  1.000000  1.000000  1.000000
 FoFCou: FMM=F IPFlag=           0 FMFlag=      100000 FMFlg1=           0
         NFxFlg=           0 DoJE=T BraDBF=F KetDBF=T FulRan=T
         Omega=  0.000000  0.000000  1.000000  0.000000  0.000000 ICntrl=     500 IOpCl=  0
         NMat0=    1 NMatS0=    1 NMatT0=    0 NMatD0=    1 NMtDS0=    0 NMtDT0=    0
         I1Cent=           4 NGrid=           0.
 Petite list used in FoFCou.
 Requested convergence on RMS density matrix=1.00D-08 within 128 cycles.
 Requested convergence on MAX density matrix=1.00D-06.
 Requested convergence on             energy=1.00D-06.
 No special actions if energy rises.
 Keep R1 ints in memory in canonical form, NReq=882264.
 Integral accuracy reduced to 1.0D-05 until final iterations.
 Initial convergence to 1.0D-05 achieved.  Increase integral accuracy.
 SCF Done:  E(RB3LYP) =  -1.32601649375     A.U. after    7 cycles
             Convg  =    0.1775D-13             -V/T =  1.9467
 Calling FoFJK, ICntrl=      2127 FMM=F ISym2X=1 I1Cent= 0 IOpClX= 0 NMat=1 NMatS=1 NMatT=0.
 ***** Axes restored to original set *****
 -------------------------------------------------------------------
 Center     Atomic                   Forces (Hartrees/Bohr)
 Number     Number              X              Y              Z
 -------------------------------------------------------------------
      1        1          -0.015548430    0.000000000   -0.026930671
      2        1          -0.015548430    0.000000000    0.026930671
      3        1           0.031096860    0.000000000    0.000000000
 -------------------------------------------------------------------
 Cartesian Forces:  Max     0.031096860 RMS     0.017953780

 GradGradGradGradGradGradGradGradGradGradGradGradGradGradGradGradGradGrad
 Berny optimization.
 Using GEDIIS/GDIIS optimizer.
 Internal  Forces:  Max     0.017953780 RMS     0.017953780
 Search for a local minimum.
 Step number   2 out of a maximum of   20
 All quantities printed in internal units (Hartrees-Bohrs-Radians)
 Mixed Optimization -- RFO/linear search
 Update second derivatives using D2CorX and points    1    2
 DE= -1.63D-02 DEPred=-1.40D-02 R= 1.17D+00
 SS=  1.41D+00  RLast= 2.51D-01 DXNew= 5.0454D-01 7.5357D-01
 Trust test= 1.17D+00 RLast= 2.51D-01 DXMaxT set to 5.05D-01
 The second derivative matrix:
                          R1        R2        R3
           R1           0.35891
           R2          -0.03248   0.35891
           R3          -0.03248  -0.03248   0.35891
 ITU=  1  0
 Use linear search instead of GDIIS.
     Eigenvalues ---    0.29396   0.39139   0.39139
 RFO step:  Lambda= 0.00000000D+00 EMin= 2.93955623D-01
 Quartic linear search produced a step of  0.66328.
 Iteration  1 RMS(Cart)=  0.05553642 RMS(Int)=  0.00000000
 Iteration  2 RMS(Cart)=  0.00000000 RMS(Int)=  0.00000000
 ClnCor:  largest displacement from symmetrization is 9.49D-16 for atom     3.
 Variable       Old X    -DE/DX   Delta X   Delta X   Delta X     New X
                                 (Linear)    (Quad)   (Total)
    R1        1.54342   0.01795   0.09619   0.00000   0.09619   1.63961
    R2        1.54342   0.01795   0.09619   0.00000   0.09619   1.63961
    R3        1.54342   0.01795   0.09619   0.00000   0.09619   1.63961
         Item               Value     Threshold  Converged?
 Maximum Force            0.017954     0.000450     NO 
 RMS     Force            0.017954     0.000300     NO 
 Maximum Displacement     0.055536     0.001800     NO 
 RMS     Displacement     0.055536     0.001200     NO 
 Predicted change in Energy=-1.101120D-03
 GradGradGradGradGradGradGradGradGradGradGradGradGradGradGradGradGradGrad

                          Input orientation:                          
 ---------------------------------------------------------------------
 Center     Atomic      Atomic             Coordinates (Angstroms)
 Number     Number       Type             X           Y           Z
 ---------------------------------------------------------------------
      1          1           0       -0.036848    0.000000   -0.063823
      2          1           0       -0.036848    0.000000    0.803823
      3          1           0        0.714556    0.000000    0.370000
 ---------------------------------------------------------------------
                    Distance matrix (angstroms):
                    1          2          3
     1  H    0.000000
     2  H    0.867647   0.000000
     3  H    0.867647   0.867647   0.000000
 Stoichiometry    H3(1+)
 Framework group  D3H[3C2(H)]
 Deg. of freedom     1
 Full point group                 D3H     NOp  12
 Largest Abelian subgroup         C2V     NOp   4
 Largest concise Abelian subgroup C2      NOp   2
                         Standard orientation:                         
 ---------------------------------------------------------------------
 Center     Atomic      Atomic             Coordinates (Angstroms)
 Number     Number       Type             X           Y           Z
 ---------------------------------------------------------------------
      1          1           0        0.000000    0.500936    0.000000
      2          1           0        0.433823   -0.250468    0.000000
      3          1           0       -0.433823   -0.250468    0.000000
 ---------------------------------------------------------------------
 Rotational constants (GHZ):   1332.2209481   1332.2209481    666.1104741
 Standard basis: 6-31G(d) (6D, 7F)
 There are     4 symmetry adapted basis functions of A1  symmetry.
 There are     0 symmetry adapted basis functions of A2  symmetry.
 There are     2 symmetry adapted basis functions of B1  symmetry.
 There are     0 symmetry adapted basis functions of B2  symmetry.
 Integral buffers will be    262144 words long.
 Raffenetti 2 integral format.
 Two-electron integral symmetry is turned on.
     6 basis functions,    12 primitive gaussians,     6 cartesian basis functions
     1 alpha electrons        1 beta electrons
       nuclear repulsion energy         1.8296983257 Hartrees.
 NAtoms=    3 NActive=    3 NUniq=    1 SFac= 4.00D+00 NAtFMM=   50 NAOKFM=F Big=F
 One-electron integrals computed using PRISM.
 NBasis=     6 RedAO= T  NBF=     4     0     2     0
 NBsUse=     6 1.00D-06 NBFU=     4     0     2     0
 Initial guess read from the read-write file.
 B after Tr=     0.000000    0.000000    0.000000
         Rot=    1.000000    0.000000    0.000000    0.000000 Ang=   0.00 deg.
 Initial guess orbital symmetries:
       Occupied  (A1')
       Virtual   (E') (E') (A1') (E') (E')
 Harris functional with IExCor=  402 diagonalized for initial guess.
 ExpMin= 1.61D-01 ExpMax= 1.87D+01 ExpMxC= 1.87D+01 IAcc=1 IRadAn=         1 AccDes= 0.00D+00
 HarFok:  IExCor=  402 AccDes= 0.00D+00 IRadAn=         1 IDoV= 1
 ScaDFX=  1.000000  1.000000  1.000000  1.000000
 FoFCou: FMM=F IPFlag=           0 FMFlag=      100000 FMFlg1=           0
         NFxFlg=           0 DoJE=T BraDBF=F KetDBF=T FulRan=T
         Omega=  0.000000  0.000000  1.000000  0.000000  0.000000 ICntrl=     500 IOpCl=  0
         NMat0=    1 NMatS0=    1 NMatT0=    0 NMatD0=    1 NMtDS0=    0 NMtDT0=    0
         I1Cent=           4 NGrid=           0.
 Petite list used in FoFCou.
 Requested convergence on RMS density matrix=1.00D-08 within 128 cycles.
 Requested convergence on MAX density matrix=1.00D-06.
 Requested convergence on             energy=1.00D-06.
 No special actions if energy rises.
 Keep R1 ints in memory in canonical form, NReq=882264.
 Integral accuracy reduced to 1.0D-05 until final iterations.
 Initial convergence to 1.0D-05 achieved.  Increase integral accuracy.
 SCF Done:  E(RB3LYP) =  -1.32835412823     A.U. after    6 cycles
             Convg  =    0.4557D-14             -V/T =  1.9974
 Calling FoFJK, ICntrl=      2127 FMM=F ISym2X=1 I1Cent= 0 IOpClX= 0 NMat=1 NMatS=1 NMatT=0.
 ***** Axes restored to original set *****
 -------------------------------------------------------------------
 Center     Atomic                   Forces (Hartrees/Bohr)
 Number     Number              X              Y              Z
 -------------------------------------------------------------------
      1        1           0.000623628    0.000000000    0.001080156
      2        1           0.000623628    0.000000000   -0.001080156
      3        1          -0.001247257    0.000000000    0.000000000
 -------------------------------------------------------------------
 Cartesian Forces:  Max     0.001247257 RMS     0.000720104

 GradGradGradGradGradGradGradGradGradGradGradGradGradGradGradGradGradGrad
 Berny optimization.
 Using GEDIIS/GDIIS optimizer.
 Internal  Forces:  Max     0.000720104 RMS     0.000720104
 Search for a local minimum.
 Step number   3 out of a maximum of   20
 All quantities printed in internal units (Hartrees-Bohrs-Radians)
 Mixed Optimization -- En-DIIS/RFO-DIIS
 Update second derivatives using D2CorX and points    1    2    3
 DE= -2.34D-03 DEPred=-1.10D-03 R= 2.12D+00
 SS=  1.41D+00  RLast= 1.67D-01 DXNew= 8.4853D-01 4.9983D-01
 Trust test= 2.12D+00 RLast= 1.67D-01 DXMaxT set to 5.05D-01
 The second derivative matrix:
                          R1        R2        R3
           R1           0.32564
           R2          -0.06575   0.32564
           R3          -0.06575  -0.06575   0.32564
 ITU=  1  1  0
 Use linear search instead of GDIIS.
     Eigenvalues ---    0.19413   0.39139   0.39139
 RFO step:  Lambda= 0.00000000D+00 EMin= 1.94131563D-01
 Quartic linear search produced a step of -0.04560.
 Iteration  1 RMS(Cart)=  0.00253241 RMS(Int)=  0.00000000
 Iteration  2 RMS(Cart)=  0.00000000 RMS(Int)=  0.00000000
 ClnCor:  largest displacement from symmetrization is 1.33D-15 for atom     3.
 Variable       Old X    -DE/DX   Delta X   Delta X   Delta X     New X
                                 (Linear)    (Quad)   (Total)
    R1        1.63961  -0.00072  -0.00439   0.00000  -0.00439   1.63523
    R2        1.63961  -0.00072  -0.00439   0.00000  -0.00439   1.63523
    R3        1.63961  -0.00072  -0.00439   0.00000  -0.00439   1.63523
         Item               Value     Threshold  Converged?
 Maximum Force            0.000720     0.000450     NO 
 RMS     Force            0.000720     0.000300     NO 
 Maximum Displacement     0.002532     0.001800     NO 
 RMS     Displacement     0.002532     0.001200     NO 
 Predicted change in Energy=-3.873268D-06
 GradGradGradGradGradGradGradGradGradGradGradGradGradGradGradGradGradGrad

                          Input orientation:                          
 ---------------------------------------------------------------------
 Center     Atomic      Atomic             Coordinates (Angstroms)
 Number     Number       Type             X           Y           Z
 ---------------------------------------------------------------------
      1          1           0       -0.036178    0.000000   -0.062663
      2          1           0       -0.036178    0.000000    0.802663
      3          1           0        0.713216    0.000000    0.370000
 ---------------------------------------------------------------------
                    Distance matrix (angstroms):
                    1          2          3
     1  H    0.000000
     2  H    0.865326   0.000000
     3  H    0.865326   0.865326   0.000000
 Stoichiometry    H3(1+)
 Framework group  D3H[3C2(H)]
 Deg. of freedom     1
 Full point group                 D3H     NOp  12
 Largest Abelian subgroup         C2V     NOp   4
 Largest concise Abelian subgroup C2      NOp   2
                         Standard orientation:                         
 ---------------------------------------------------------------------
 Center     Atomic      Atomic             Coordinates (Angstroms)
 Number     Number       Type             X           Y           Z
 ---------------------------------------------------------------------
      1          1           0        0.000000    0.499596    0.000000
      2          1           0        0.432663   -0.249798    0.000000
      3          1           0       -0.432663   -0.249798    0.000000
 ---------------------------------------------------------------------
 Rotational constants (GHZ):   1339.3775004   1339.3775004    669.6887502
 Standard basis: 6-31G(d) (6D, 7F)
 There are     4 symmetry adapted basis functions of A1  symmetry.
 There are     0 symmetry adapted basis functions of A2  symmetry.
 There are     2 symmetry adapted basis functions of B1  symmetry.
 There are     0 symmetry adapted basis functions of B2  symmetry.
 Integral buffers will be    262144 words long.
 Raffenetti 2 integral format.
 Two-electron integral symmetry is turned on.
     6 basis functions,    12 primitive gaussians,     6 cartesian basis functions
     1 alpha electrons        1 beta electrons
       nuclear repulsion energy         1.8346062179 Hartrees.
 NAtoms=    3 NActive=    3 NUniq=    1 SFac= 4.00D+00 NAtFMM=   50 NAOKFM=F Big=F
 One-electron integrals computed using PRISM.
 NBasis=     6 RedAO= T  NBF=     4     0     2     0
 NBsUse=     6 1.00D-06 NBFU=     4     0     2     0
 Initial guess read from the read-write file.
 B after Tr=     0.000000    0.000000    0.000000
         Rot=    1.000000    0.000000    0.000000    0.000000 Ang=   0.00 deg.
 Initial guess orbital symmetries:
       Occupied  (A1')
       Virtual   (E') (E') (A1') (E') (E')
 Requested convergence on RMS density matrix=1.00D-08 within 128 cycles.
 Requested convergence on MAX density matrix=1.00D-06.
 Requested convergence on             energy=1.00D-06.
 No special actions if energy rises.
 Keep R1 ints in memory in canonical form, NReq=882264.
 SCF Done:  E(RB3LYP) =  -1.32835886179     A.U. after    3 cycles
             Convg  =    0.3638D-09             -V/T =  1.9952
 Calling FoFJK, ICntrl=      2127 FMM=F ISym2X=1 I1Cent= 0 IOpClX= 0 NMat=1 NMatS=1 NMatT=0.
 ***** Axes restored to original set *****
 -------------------------------------------------------------------
 Center     Atomic                   Forces (Hartrees/Bohr)
 Number     Number              X              Y              Z
 -------------------------------------------------------------------
      1        1          -0.000002174    0.000000000   -0.000003766
      2        1          -0.000002174    0.000000000    0.000003766
      3        1           0.000004348    0.000000000    0.000000000
 -------------------------------------------------------------------
 Cartesian Forces:  Max     0.000004348 RMS     0.000002510

 GradGradGradGradGradGradGradGradGradGradGradGradGradGradGradGradGradGrad
 Berny optimization.
 Using GEDIIS/GDIIS optimizer.
 Internal  Forces:  Max     0.000002510 RMS     0.000002510
 Search for a local minimum.
 Step number   4 out of a maximum of   20
 All quantities printed in internal units (Hartrees-Bohrs-Radians)
 Mixed Optimization -- En-DIIS/RFO-DIIS
 Swaping is turned off.
 Update second derivatives using D2CorX and points    1    2    3    4
 DE= -4.73D-06 DEPred=-3.87D-06 R= 1.22D+00
 SS=  1.41D+00  RLast= 7.60D-03 DXNew= 8.4853D-01 2.2792D-02
 Trust test= 1.22D+00 RLast= 7.60D-03 DXMaxT set to 5.05D-01
 The second derivative matrix:
                          R1        R2        R3
           R1           0.31584
           R2          -0.07555   0.31584
           R3          -0.07555  -0.07555   0.31584
 ITU=  1  1  1  0
     Eigenvalues ---    0.16475   0.39139   0.39139
 En-DIIS/RFO-DIIS IScMMF=        0 using points:     4    3
 RFO step:  Lambda= 0.00000000D+00.
 DidBck=F Rises=F RFO-DIIS coefs:    0.99653    0.00347
 Iteration  1 RMS(Cart)=  0.00000880 RMS(Int)=  0.00000000
 Iteration  2 RMS(Cart)=  0.00000000 RMS(Int)=  0.00000000
 ClnCor:  largest displacement from symmetrization is 1.94D-15 for atom     3.
 Variable       Old X    -DE/DX   Delta X   Delta X   Delta X     New X
                                  (DIIS)     (GDIIS)  (Total)
    R1        1.63523   0.00000   0.00002   0.00000   0.00002   1.63524
    R2        1.63523   0.00000   0.00002   0.00000   0.00002   1.63524
    R3        1.63523   0.00000   0.00002   0.00000   0.00002   1.63524
         Item               Value     Threshold  Converged?
 Maximum Force            0.000003     0.000450     YES
 RMS     Force            0.000003     0.000300     YES
 Maximum Displacement     0.000009     0.001800     YES
 RMS     Displacement     0.000009     0.001200     YES
 Predicted change in Energy=-5.738420D-11
 Optimization completed.
    -- Stationary point found.
                           ----------------------------
                           !   Optimized Parameters   !
                           ! (Angstroms and Degrees)  !
 --------------------------                            --------------------------
 ! Name  Definition              Value          Derivative Info.                !
 --------------------------------------------------------------------------------
 ! R1    R(1,2)                  0.8653         -DE/DX =    0.0                 !
 ! R2    R(1,3)                  0.8653         -DE/DX =    0.0                 !
 ! R3    R(2,3)                  0.8653         -DE/DX =    0.0                 !
 --------------------------------------------------------------------------------
 GradGradGradGradGradGradGradGradGradGradGradGradGradGradGradGradGradGrad

                          Input orientation:                          
 ---------------------------------------------------------------------
 Center     Atomic      Atomic             Coordinates (Angstroms)
 Number     Number       Type             X           Y           Z
 ---------------------------------------------------------------------
      1          1           0       -0.036178    0.000000   -0.062663
      2          1           0       -0.036178    0.000000    0.802663
      3          1           0        0.713216    0.000000    0.370000
 ---------------------------------------------------------------------
                    Distance matrix (angstroms):
                    1          2          3
     1  H    0.000000
     2  H    0.865326   0.000000
     3  H    0.865326   0.865326   0.000000
 Stoichiometry    H3(1+)
 Framework group  D3H[3C2(H)]
 Deg. of freedom     1
 Full point group                 D3H     NOp  12
 Largest Abelian subgroup         C2V     NOp   4
 Largest concise Abelian subgroup C2      NOp   2
                         Standard orientation:                         
 ---------------------------------------------------------------------
 Center     Atomic      Atomic             Coordinates (Angstroms)
 Number     Number       Type             X           Y           Z
 ---------------------------------------------------------------------
      1          1           0        0.000000    0.499596    0.000000
      2          1           0        0.432663   -0.249798    0.000000
      3          1           0       -0.432663   -0.249798    0.000000
 ---------------------------------------------------------------------
 Rotational constants (GHZ):   1339.3775004   1339.3775004    669.6887502

 **********************************************************************

            Population analysis using the SCF density.

 **********************************************************************

 Orbital symmetries:
       Occupied  (A1')
       Virtual   (E') (E') (A1') (E') (E')
 The electronic state is 1-A1'.
 Alpha  occ. eigenvalues --   -1.04982
 Alpha virt. eigenvalues --   -0.33786  -0.33786   0.14193   0.52099   0.52099
          Condensed to atoms (all electrons):
              1          2          3
     1  H    0.338345   0.164161   0.164161
     2  H    0.164161   0.338345   0.164161
     3  H    0.164161   0.164161   0.338345
 Mulliken atomic charges:
              1
     1  H    0.333333
     2  H    0.333333
     3  H    0.333333
 Sum of Mulliken atomic charges =   1.00000
 Mulliken charges with hydrogens summed into heavy atoms:
              1
 Sum of Mulliken charges with hydrogens summed into heavy atoms =   1.00000
 Electronic spatial extent (au):  <R**2>=              4.4348
 Charge=              1.0000 electrons
 Dipole moment (field-independent basis, Debye):
    X=              0.0000    Y=              0.0000    Z=              0.0000  Tot=              0.0000
 Quadrupole moment (field-independent basis, Debye-Ang):
   XX=             -0.4723   YY=             -0.4723   ZZ=             -1.4239
   XY=              0.0000   XZ=              0.0000   YZ=              0.0000
 Traceless Quadrupole moment (field-independent basis, Debye-Ang):
   XX=              0.3172   YY=              0.3172   ZZ=             -0.6344
   XY=              0.0000   XZ=              0.0000   YZ=              0.0000
 Octapole moment (field-independent basis, Debye-Ang**2):
  XXX=              0.0000  YYY=              0.2817  ZZZ=              0.0000  XYY=              0.0000
  XXY=             -0.2817  XXZ=              0.0000  XZZ=              0.0000  YZZ=              0.0000
  YYZ=              0.0000  XYZ=              0.0000
 Hexadecapole moment (field-independent basis, Debye-Ang**3):
 XXXX=             -1.4528 YYYY=             -1.4528 ZZZZ=             -0.9562 XXXY=              0.0000
 XXXZ=              0.0000 YYYX=              0.0000 YYYZ=              0.0000 ZZZX=              0.0000
 ZZZY=              0.0000 XXYY=             -0.4843 XXZZ=             -0.4351 YYZZ=             -0.4351
 XXYZ=              0.0000 YYXZ=              0.0000 ZZXY=              0.0000
 N-N= 1.834606217856D+00 E-N=-5.126892559013D+00  KE= 1.334771474251D+00
 Symmetry A1   KE= 1.334771474251D+00
 Symmetry A2   KE= 0.000000000000D+00
 Symmetry B1   KE=-5.165287663334D-18
 Symmetry B2   KE= 0.000000000000D+00
 B after Tr=     0.403683    0.000000    0.699199
         Rot=    0.183013   -0.183013    0.683013   -0.683013 Ang= 158.91 deg.
 Final structure in terms of initial Z-matrix:
 H
 H,1,R
 H,1,R,2,60.
      Variables:
 R=0.86532555
 1|1|UNPC-PC105322|FOpt|RB3LYP|6-31G(d)|H3(1+)|CHAPMANNAT|17-Apr-2023|0
 ||# opt b3lyp/6-31G(d)||H3+ Linear||1,1|H,-0.0361783686,0.,-0.06266277
 26|H,-0.0361783686,0.,0.8026627726|H,0.7132155361,0.,0.37||Version=IA3
 2W-G09RevB.01|State=1-A1'|HF=-1.3283589|RMSD=3.638e-010|RMSF=2.510e-00
 6|Dipole=0.,0.,0.|Quadrupole=0.2358326,-0.4716652,0.2358326,0.,0.,0.|P
 G=D03H [3C2(H1)]||@


 A MAN BEGINS CUTTING HIS WISDOM TEETH THE 1ST
 TIME HE BITES OFF MORE THAN HE CAN CHEW.
 Job cpu time:  0 days  0 hours  0 minutes  2.0 seconds.
 File lengths (MBytes):  RWF=      5 Int=      0 D2E=      0 Chk=      1 Scr=      1
 Normal termination of Gaussian 09 at Mon Apr 17 11:38:57 2023.
