 Entering Link 1 = C:\G09W\l1.exe PID=      5208.
  
 Copyright (c) 1988,1990,1992,1993,1995,1998,2003,2009,2010,
            Gaussian, Inc.  All Rights Reserved.
  
 This is part of the Gaussian(R) 09 program.  It is based on
 the Gaussian(R) 03 system (copyright 2003, Gaussian, Inc.),
 the Gaussian(R) 98 system (copyright 1998, Gaussian, Inc.),
 the Gaussian(R) 94 system (copyright 1995, Gaussian, Inc.),
 the Gaussian 92(TM) system (copyright 1992, Gaussian, Inc.),
 the Gaussian 90(TM) system (copyright 1990, Gaussian, Inc.),
 the Gaussian 88(TM) system (copyright 1988, Gaussian, Inc.),
 the Gaussian 86(TM) system (copyright 1986, Carnegie Mellon
 University), and the Gaussian 82(TM) system (copyright 1983,
 Carnegie Mellon University). Gaussian is a federally registered
 trademark of Gaussian, Inc.
  
 This software contains proprietary and confidential information,
 including trade secrets, belonging to Gaussian, Inc.
  
 This software is provided under written license and may be
 used, copied, transmitted, or stored only in accord with that
 written license.
  
 The following legend is applicable only to US Government
 contracts under FAR:
  
                    RESTRICTED RIGHTS LEGEND
  
 Use, reproduction and disclosure by the US Government is
 subject to restrictions as set forth in subparagraphs (a)
 and (c) of the Commercial Computer Software - Restricted
 Rights clause in FAR 52.227-19.
  
 Gaussian, Inc.
 340 Quinnipiac St., Bldg. 40, Wallingford CT 06492
  
  
 ---------------------------------------------------------------
 Warning -- This program may not be used in any manner that
 competes with the business of Gaussian, Inc. or will provide
 assistance to any competitor of Gaussian, Inc.  The licensee
 of this program is prohibited from giving any competitor of
 Gaussian, Inc. access to this program.  By using this program,
 the user acknowledges that Gaussian, Inc. is engaged in the
 business of creating and licensing software in the field of
 computational chemistry and represents and warrants to the
 licensee that it is not a competitor of Gaussian, Inc. and that
 it will not use this program in any manner prohibited above.
 ---------------------------------------------------------------
  

 Cite this work as:
 Gaussian 09, Revision B.01,
 M. J. Frisch, G. W. Trucks, H. B. Schlegel, G. E. Scuseria, 
 M. A. Robb, J. R. Cheeseman, G. Scalmani, V. Barone, B. Mennucci, 
 G. A. Petersson, H. Nakatsuji, M. Caricato, X. Li, H. P. Hratchian, 
 A. F. Izmaylov, J. Bloino, G. Zheng, J. L. Sonnenberg, M. Hada, 
 M. Ehara, K. Toyota, R. Fukuda, J. Hasegawa, M. Ishida, T. Nakajima, 
 Y. Honda, O. Kitao, H. Nakai, T. Vreven, J. A. Montgomery, Jr., 
 J. E. Peralta, F. Ogliaro, M. Bearpark, J. J. Heyd, E. Brothers, 
 K. N. Kudin, V. N. Staroverov, T. Keith, R. Kobayashi, J. Normand, 
 K. Raghavachari, A. Rendell, J. C. Burant, S. S. Iyengar, J. Tomasi, 
 M. Cossi, N. Rega, J. M. Millam, M. Klene, J. E. Knox, J. B. Cross, 
 V. Bakken, C. Adamo, J. Jaramillo, R. Gomperts, R. E. Stratmann, 
 O. Yazyev, A. J. Austin, R. Cammi, C. Pomelli, J. W. Ochterski, 
 R. L. Martin, K. Morokuma, V. G. Zakrzewski, G. A. Voth, 
 P. Salvador, J. J. Dannenberg, S. Dapprich, A. D. Daniels, 
 O. Farkas, J. B. Foresman, J. V. Ortiz, J. Cioslowski, 
 and D. J. Fox, Gaussian, Inc., Wallingford CT, 2010.
 
 ******************************************
 Gaussian 09:  IA32W-G09RevB.01 12-Aug-2010
                10-Apr-2023 
 ******************************************
 ---------------------------------------------
 # opt freq hf/6-311++g(d,p) geom=connectivity
 ---------------------------------------------
 1/18=20,19=15,38=1,57=2/1,3;
 2/9=110,12=2,17=6,18=5,40=1/2;
 3/5=4,6=6,7=1111,11=9,16=1,25=1,30=1,71=1/1,2,3;
 4//1;
 5/5=2,38=5/2;
 6/7=2,8=2,9=2,10=2,28=1/1;
 7//1,2,3,16;
 1/18=20,19=15/3(2);
 2/9=110/2;
 99//99;
 2/9=110/2;
 3/5=4,6=6,7=1111,11=9,16=1,25=1,30=1,71=1/1,2,3;
 4/5=5,16=3/1;
 5/5=2,38=5/2;
 7//1,2,3,16;
 1/18=20,19=15/3(-5);
 2/9=110/2;
 6/7=2,8=2,9=2,10=2,19=2,28=1/1;
 99/9=1/99;
 -------------------
 Title Card Required
 -------------------
 Symbolic Z-matrix:
 Charge =  0 Multiplicity = 1
 O                    -1.12876   0.00047  -0.07797 
 H                    -2.06674   0.00531   0.05846 
 H                    -0.69988  -0.01578   0.78645 
 O                     1.23546  -0.00104   0.08009 
 H                     0.95642  -0.75691  -0.44372 
 H                     0.95652   0.77193  -0.41818 
 

 GradGradGradGradGradGradGradGradGradGradGradGradGradGradGradGradGradGrad
 Berny optimization.
 Initialization pass.
                           ----------------------------
                           !    Initial Parameters    !
                           ! (Angstroms and Degrees)  !
 --------------------------                            --------------------------
 ! Name  Definition              Value          Derivative Info.                !
 --------------------------------------------------------------------------------
 ! R1    R(1,2)                  0.9479         estimate D2E/DX2                !
 ! R2    R(1,3)                  0.9651         estimate D2E/DX2                !
 ! R3    R(1,4)                  2.3695         estimate D2E/DX2                !
 ! R4    R(1,5)                  2.2484         estimate D2E/DX2                !
 ! R5    R(1,6)                  2.2493         estimate D2E/DX2                !
 ! R6    R(3,4)                  2.0603         estimate D2E/DX2                !
 ! R7    R(4,5)                  0.961          estimate D2E/DX2                !
 ! R8    R(4,6)                  0.961          estimate D2E/DX2                !
 ! A1    A(2,1,3)              108.1151         estimate D2E/DX2                !
 ! A2    A(2,1,4)              167.8973         estimate D2E/DX2                !
 ! A3    A(2,1,5)              160.5383         estimate D2E/DX2                !
 ! A4    A(2,1,6)              159.6257         estimate D2E/DX2                !
 ! A5    A(3,1,5)               74.2112         estimate D2E/DX2                !
 ! A6    A(3,1,6)               74.2919         estimate D2E/DX2                !
 ! A7    A(5,1,6)               39.7493         estimate D2E/DX2                !
 ! A8    A(3,4,5)               84.7495         estimate D2E/DX2                !
 ! A9    A(3,4,6)               84.8855         estimate D2E/DX2                !
 ! A10   A(5,4,6)              105.4107         estimate D2E/DX2                !
 ! D1    D(2,1,4,3)              2.3209         estimate D2E/DX2                !
 ! D2    D(2,1,5,3)            -99.7655         estimate D2E/DX2                !
 ! D3    D(2,1,6,3)             99.8143         estimate D2E/DX2                !
 ! D4    D(2,1,5,4)           -148.9344         estimate D2E/DX2                !
 ! D5    D(2,1,6,4)            148.7572         estimate D2E/DX2                !
 ! D6    D(2,1,6,5)           -176.1478         estimate D2E/DX2                !
 ! D7    D(3,1,6,5)             84.038          estimate D2E/DX2                !
 --------------------------------------------------------------------------------
 Trust Radius=3.00D-01 FncErr=1.00D-07 GrdErr=1.00D-07
 Number of steps in this run=     35 maximum allowed number of steps=    100.
 GradGradGradGradGradGradGradGradGradGradGradGradGradGradGradGradGradGrad

                          Input orientation:                          
 ---------------------------------------------------------------------
 Center     Atomic      Atomic             Coordinates (Angstroms)
 Number     Number       Type             X           Y           Z
 ---------------------------------------------------------------------
      1          8           0       -1.128755    0.000470   -0.077966
      2          1           0       -2.066737    0.005311    0.058459
      3          1           0       -0.699876   -0.015780    0.786454
      4          8           0        1.235464   -0.001038    0.080089
      5          1           0        0.956418   -0.756910   -0.443724
      6          1           0        0.956518    0.771927   -0.418175
 ---------------------------------------------------------------------
                    Distance matrix (angstroms):
                    1          2          3          4          5
     1  O    0.000000
     2  H    0.947864   0.000000
     3  H    0.965103   1.548784   0.000000
     4  O    2.369497   3.302278   2.060269   0.000000
     5  H    2.248411   3.157948   2.192241   0.961035   0.000000
     6  H    2.249278   3.155147   2.194369   0.961017   1.529050
                    6
     6  H    0.000000
 Stoichiometry    H4O2
 Framework group  C1[X(H4O2)]
 Deg. of freedom    12
 Full point group                 C1      NOp   1
 Largest Abelian subgroup         C1      NOp   1
 Largest concise Abelian subgroup C1      NOp   1
                         Standard orientation:                         
 ---------------------------------------------------------------------
 Center     Atomic      Atomic             Coordinates (Angstroms)
 Number     Number       Type             X           Y           Z
 ---------------------------------------------------------------------
      1          8           0       -1.128755    0.000470   -0.077966
      2          1           0       -2.066737    0.005311    0.058459
      3          1           0       -0.699876   -0.015780    0.786454
      4          8           0        1.235464   -0.001038    0.080089
      5          1           0        0.956418   -0.756910   -0.443724
      6          1           0        0.956518    0.771927   -0.418175
 ---------------------------------------------------------------------
 Rotational constants (GHZ):    216.3649100      9.6048708      9.6010926
 Standard basis: 6-311++G(d,p) (5D, 7F)
 There are    72 symmetry adapted basis functions of A   symmetry.
 Integral buffers will be    262144 words long.
 Raffenetti 1 integral format.
 Two-electron integral symmetry is turned on.
    72 basis functions,   108 primitive gaussians,    74 cartesian basis functions
    10 alpha electrons       10 beta electrons
       nuclear repulsion energy        40.5633355933 Hartrees.
 NAtoms=    6 NActive=    6 NUniq=    6 SFac= 1.00D+00 NAtFMM=   50 NAOKFM=F Big=F
 One-electron integrals computed using PRISM.
 NBasis=    72 RedAO= T  NBF=    72
 NBsUse=    72 1.00D-06 NBFU=    72
 Harris functional with IExCor=  205 diagonalized for initial guess.
 ExpMin= 3.60D-02 ExpMax= 8.59D+03 ExpMxC= 1.30D+03 IAcc=3 IRadAn=         0 AccDes= 0.00D+00
 HarFok:  IExCor=  205 AccDes= 0.00D+00 IRadAn=         0 IDoV= 1
 ScaDFX=  1.000000  1.000000  1.000000  1.000000
 FoFCou: FMM=F IPFlag=           0 FMFlag=      100000 FMFlg1=           0
         NFxFlg=           0 DoJE=T BraDBF=F KetDBF=T FulRan=T
         Omega=  0.000000  0.000000  1.000000  0.000000  0.000000 ICntrl=     500 IOpCl=  0
         NMat0=    1 NMatS0=    1 NMatT0=    0 NMatD0=    1 NMtDS0=    0 NMtDT0=    0
         I1Cent=           4 NGrid=           0.
 Petite list used in FoFCou.
 Initial guess orbital symmetries:
       Occupied  (A) (A) (A) (A) (A) (A) (A) (A) (A) (A)
       Virtual   (A) (A) (A) (A) (A) (A) (A) (A) (A) (A) (A) (A)
                 (A) (A) (A) (A) (A) (A) (A) (A) (A) (A) (A) (A)
                 (A) (A) (A) (A) (A) (A) (A) (A) (A) (A) (A) (A)
                 (A) (A) (A) (A) (A) (A) (A) (A) (A) (A) (A) (A)
                 (A) (A) (A) (A) (A) (A) (A) (A) (A) (A) (A) (A)
                 (A) (A)
 The electronic state of the initial guess is 1-A.
 Requested convergence on RMS density matrix=1.00D-08 within 128 cycles.
 Requested convergence on MAX density matrix=1.00D-06.
 Requested convergence on             energy=1.00D-06.
 No special actions if energy rises.
 Keep R1 ints in memory in canonical form, NReq=4707187.
 SCF Done:  E(RHF) =  -152.100699952     A.U. after   11 cycles
             Convg  =    0.4451D-08             -V/T =  2.0003

 **********************************************************************

            Population analysis using the SCF density.

 **********************************************************************

 Orbital symmetries:
       Occupied  (A) (A) (A) (A) (A) (A) (A) (A) (A) (A)
       Virtual   (A) (A) (A) (A) (A) (A) (A) (A) (A) (A) (A) (A)
                 (A) (A) (A) (A) (A) (A) (A) (A) (A) (A) (A) (A)
                 (A) (A) (A) (A) (A) (A) (A) (A) (A) (A) (A) (A)
                 (A) (A) (A) (A) (A) (A) (A) (A) (A) (A) (A) (A)
                 (A) (A) (A) (A) (A) (A) (A) (A) (A) (A) (A) (A)
                 (A) (A)
 The electronic state is 1-A.
 Alpha  occ. eigenvalues --  -20.56304 -20.54798  -1.36510  -1.33248  -0.73518
 Alpha  occ. eigenvalues --   -0.70832  -0.60060  -0.55574  -0.51173  -0.49125
 Alpha virt. eigenvalues --    0.04339   0.07008   0.08196   0.08422   0.24287
 Alpha virt. eigenvalues --    0.25223   0.26090   0.26663   0.26889   0.27328
 Alpha virt. eigenvalues --    0.30958   0.31224   0.32625   0.35031   0.44146
 Alpha virt. eigenvalues --    0.44399   0.69285   0.69744   0.72178   0.77387
 Alpha virt. eigenvalues --    1.11738   1.23054   1.24505   1.25600   1.26218
 Alpha virt. eigenvalues --    1.39763   1.48715   1.49883   1.55595   1.56078
 Alpha virt. eigenvalues --    1.63111   1.70390   1.75759   1.85509   1.94755
 Alpha virt. eigenvalues --    2.10690   2.32435   2.34162   2.46602   2.47980
 Alpha virt. eigenvalues --    2.77678   2.83199   2.89449   2.97962   3.46265
 Alpha virt. eigenvalues --    3.52758   3.54281   3.56001   3.70918   3.76196
 Alpha virt. eigenvalues --    4.12471   4.19071   4.33880   4.38013   5.51544
 Alpha virt. eigenvalues --    5.61910   5.87729   5.93964   6.21432   6.26341
 Alpha virt. eigenvalues --   51.57498  51.62594
          Condensed to atoms (all electrons):
              1          2          3          4          5          6
     1  O    8.006035   0.273579   0.320428  -0.008088  -0.005971  -0.006177
     2  H    0.273579   0.466811  -0.011470   0.006215   0.000888   0.000860
     3  H    0.320428  -0.011470   0.411000  -0.002660   0.000168   0.000139
     4  O   -0.008088   0.006215  -0.002660   7.818975   0.349338   0.349494
     5  H   -0.005971   0.000888   0.000168   0.349338   0.406401  -0.024545
     6  H   -0.006177   0.000860   0.000139   0.349494  -0.024545   0.406381
 Mulliken atomic charges:
              1
     1  O   -0.579806
     2  H    0.263118
     3  H    0.282395
     4  O   -0.513274
     5  H    0.273720
     6  H    0.273847
 Sum of Mulliken atomic charges =   0.00000
 Mulliken charges with hydrogens summed into heavy atoms:
              1
     1  O   -0.034293
     4  O    0.034293
 Sum of Mulliken charges with hydrogens summed into heavy atoms =   0.00000
 Electronic spatial extent (au):  <R**2>=            138.9478
 Charge=              0.0000 electrons
 Dipole moment (field-independent basis, Debye):
    X=             -2.0554    Y=              0.0108    Z=              0.0079  Tot=              2.0555
 Quadrupole moment (field-independent basis, Debye-Ang):
   XX=            -12.7935   YY=            -11.7170   ZZ=            -12.2439
   XY=              0.0240   XZ=             -3.3110   YZ=              0.0032
 Traceless Quadrupole moment (field-independent basis, Debye-Ang):
   XX=             -0.5420   YY=              0.5344   ZZ=              0.0076
   XY=              0.0240   XZ=             -3.3110   YZ=              0.0032
 Octapole moment (field-independent basis, Debye-Ang**2):
  XXX=            -20.2627  YYY=              0.0603  ZZZ=              0.7317  XYY=              3.1566
  XXY=              0.0800  XXZ=             -0.5285  XZZ=             -0.7701  YZZ=             -0.0468
  YYZ=             -1.0012  XYZ=              0.0682
 Hexadecapole moment (field-independent basis, Debye-Ang**3):
 XXXX=           -110.5336 YYYY=            -12.5098 ZZZZ=            -13.5452 XXXY=             -0.0966
 XXXZ=             -3.7289 YYYX=              0.0593 YYYZ=              0.0034 ZZZX=             -2.4519
 ZZZY=              0.0086 XXYY=            -22.5448 XXZZ=            -23.6757 YYZZ=             -4.2672
 XXYZ=              0.0163 YYXZ=             -1.4914 ZZXY=             -0.0126
 N-N= 4.056333559327D+01 E-N=-4.425653857349D+02  KE= 1.520601567385D+02
 Calling FoFJK, ICntrl=      2127 FMM=F ISym2X=0 I1Cent= 0 IOpClX= 0 NMat=1 NMatS=1 NMatT=0.
 ***** Axes restored to original set *****
 -------------------------------------------------------------------
 Center     Atomic                   Forces (Hartrees/Bohr)
 Number     Number              X              Y              Z
 -------------------------------------------------------------------
      1        8          -0.020935738   -0.000297148    0.021645186
      2        1           0.007102681   -0.000130161    0.000045384
      3        1          -0.012626073    0.000495205   -0.023353894
      4        8           0.014812176    0.000264421   -0.018371832
      5        1           0.005846071    0.019931748    0.010339732
      6        1           0.005800883   -0.020264065    0.009695425
 -------------------------------------------------------------------
 Cartesian Forces:  Max     0.023353894 RMS     0.013532023

 GradGradGradGradGradGradGradGradGradGradGradGradGradGradGradGradGradGrad
 Berny optimization.
 Internal  Forces:  Max     0.023869093 RMS     0.008596784
 Search for a local minimum.
 Step number   1 out of a maximum of   35
 All quantities printed in internal units (Hartrees-Bohrs-Radians)
 Mixed Optimization -- RFO/linear search
 Second derivative matrix not updated -- first step.
 ITU=  0
     Eigenvalues ---    0.00840   0.01066   0.02361   0.03629   0.06287
     Eigenvalues ---    0.07235   0.11922   0.12839   0.46974   0.50396
     Eigenvalues ---    0.53373   0.58168
 RFO step:  Lambda=-7.83593901D-03 EMin= 8.40164927D-03
 Linear search not attempted -- first point.
 Maximum step size (   0.300) exceeded in Quadratic search.
    -- Step size scaled by   0.988
 Iteration  1 RMS(Cart)=  0.03907438 RMS(Int)=  0.00112035
 Iteration  2 RMS(Cart)=  0.00038785 RMS(Int)=  0.00046709
 Iteration  3 RMS(Cart)=  0.00000033 RMS(Int)=  0.00046708
 Variable       Old X    -DE/DX   Delta X   Delta X   Delta X     New X
                                 (Linear)    (Quad)   (Total)
    R1        1.79120  -0.00702   0.00000  -0.01177  -0.01177   1.77944
    R2        1.82378  -0.02387   0.00000  -0.04234  -0.04218   1.78160
    R3        4.47770   0.00962   0.00000   0.17769   0.17664   4.65434
    R4        4.24888   0.00302   0.00000   0.10857   0.10891   4.35779
    R5        4.25052   0.00302   0.00000   0.10925   0.10954   4.36006
    R6        3.89334   0.00810   0.00000   0.14331   0.14393   4.03727
    R7        1.81609  -0.01930   0.00000  -0.03567  -0.03587   1.78022
    R8        1.81606  -0.01927   0.00000  -0.03565  -0.03584   1.78022
    A1        1.88696   0.00398   0.00000   0.01416   0.01497   1.90193
    A2        2.93036   0.00215   0.00000   0.00103   0.00147   2.93183
    A3        2.80192   0.00485   0.00000   0.02267   0.02201   2.82393
    A4        2.78599   0.00494   0.00000   0.02301   0.02239   2.80838
    A5        1.29523  -0.00452   0.00000  -0.02452  -0.02483   1.27040
    A6        1.29664  -0.00461   0.00000  -0.02555  -0.02576   1.27087
    A7        0.69376  -0.00977   0.00000  -0.04448  -0.04345   0.65030
    A8        1.47916  -0.00573   0.00000  -0.04059  -0.04086   1.43830
    A9        1.48153  -0.00583   0.00000  -0.04134  -0.04151   1.44002
   A10        1.83976  -0.00572   0.00000  -0.04269  -0.04342   1.79635
    D1        0.04051   0.00000   0.00000  -0.00226  -0.00224   0.03827
    D2       -1.74124  -0.00019   0.00000   0.02208   0.02235  -1.71889
    D3        1.74209  -0.00003   0.00000  -0.02366  -0.02379   1.71830
    D4       -2.59940   0.00127   0.00000   0.03171   0.03181  -2.56759
    D5        2.59630  -0.00127   0.00000  -0.03072  -0.03074   2.56556
    D6       -3.07436  -0.00016   0.00000  -0.02508  -0.02497  -3.09932
    D7        1.46674  -0.00013   0.00000  -0.00141  -0.00118   1.46556
         Item               Value     Threshold  Converged?
 Maximum Force            0.023869     0.000450     NO 
 RMS     Force            0.008597     0.000300     NO 
 Maximum Displacement     0.099627     0.001800     NO 
 RMS     Displacement     0.039239     0.001200     NO 
 Predicted change in Energy=-4.280226D-03
 GradGradGradGradGradGradGradGradGradGradGradGradGradGradGradGradGradGrad

                          Input orientation:                          
 ---------------------------------------------------------------------
 Center     Atomic      Atomic             Coordinates (Angstroms)
 Number     Number       Type             X           Y           Z
 ---------------------------------------------------------------------
      1          8           0       -1.170850    0.000148   -0.067671
      2          1           0       -2.101453    0.004601    0.075986
      3          1           0       -0.731983   -0.014677    0.766605
      4          8           0        1.288184   -0.001144    0.071558
      5          1           0        0.984328   -0.729230   -0.443246
      6          1           0        0.984806    0.744282   -0.418095
 ---------------------------------------------------------------------
                    Distance matrix (angstroms):
                    1          2          3          4          5
     1  O    0.000000
     2  H    0.941637   0.000000
     3  H    0.942783   1.533876   0.000000
     4  O    2.462973   3.389645   2.136434   0.000000
     5  H    2.306044   3.214055   2.218118   0.942052   0.000000
     6  H    2.307247   3.211891   2.219662   0.942050   1.473727
                    6
     6  H    0.000000
 Stoichiometry    H4O2
 Framework group  C1[X(H4O2)]
 Deg. of freedom    12
 Full point group                 C1      NOp   1
 Largest Abelian subgroup         C1      NOp   1
 Largest concise Abelian subgroup C1      NOp   1
                         Standard orientation:                         
 ---------------------------------------------------------------------
 Center     Atomic      Atomic             Coordinates (Angstroms)
 Number     Number       Type             X           Y           Z
 ---------------------------------------------------------------------
      1          8           0       -1.174095   -0.000314   -0.076000
      2          1           0       -2.105621    0.005558    0.061492
      3          1           0       -0.740717   -0.007121    0.761244
      4          8           0        1.283972   -0.000362    0.079381
      5          1           0        0.983428   -0.733360   -0.430373
      6          1           0        0.983892    0.740327   -0.419409
 ---------------------------------------------------------------------
 Rotational constants (GHZ):    230.0214628      8.9439279      8.9426413
 Standard basis: 6-311++G(d,p) (5D, 7F)
 There are    72 symmetry adapted basis functions of A   symmetry.
 Integral buffers will be    262144 words long.
 Raffenetti 1 integral format.
 Two-electron integral symmetry is turned on.
    72 basis functions,   108 primitive gaussians,    74 cartesian basis functions
    10 alpha electrons       10 beta electrons
       nuclear repulsion energy        40.1359355954 Hartrees.
 NAtoms=    6 NActive=    6 NUniq=    6 SFac= 1.00D+00 NAtFMM=   50 NAOKFM=F Big=F
 One-electron integrals computed using PRISM.
 NBasis=    72 RedAO= T  NBF=    72
 NBsUse=    72 1.00D-06 NBFU=    72
 Initial guess read from the read-write file.
 B after Tr=     0.000000    0.000000    0.000000
         Rot=    1.000000    0.000000    0.000000    0.000000 Ang=   0.00 deg.
 Initial guess orbital symmetries:
       Occupied  (A) (A) (A) (A) (A) (A) (A) (A) (A) (A)
       Virtual   (A) (A) (A) (A) (A) (A) (A) (A) (A) (A) (A) (A)
                 (A) (A) (A) (A) (A) (A) (A) (A) (A) (A) (A) (A)
                 (A) (A) (A) (A) (A) (A) (A) (A) (A) (A) (A) (A)
                 (A) (A) (A) (A) (A) (A) (A) (A) (A) (A) (A) (A)
                 (A) (A) (A) (A) (A) (A) (A) (A) (A) (A) (A) (A)
                 (A) (A)
 Harris functional with IExCor=  205 diagonalized for initial guess.
 ExpMin= 3.60D-02 ExpMax= 8.59D+03 ExpMxC= 1.30D+03 IAcc=3 IRadAn=         0 AccDes= 0.00D+00
 HarFok:  IExCor=  205 AccDes= 0.00D+00 IRadAn=         0 IDoV= 1
 ScaDFX=  1.000000  1.000000  1.000000  1.000000
 FoFCou: FMM=F IPFlag=           0 FMFlag=      100000 FMFlg1=           0
         NFxFlg=           0 DoJE=T BraDBF=F KetDBF=T FulRan=T
         Omega=  0.000000  0.000000  1.000000  0.000000  0.000000 ICntrl=     500 IOpCl=  0
         NMat0=    1 NMatS0=    1 NMatT0=    0 NMatD0=    1 NMtDS0=    0 NMtDT0=    0
         I1Cent=           4 NGrid=           0.
 Petite list used in FoFCou.
 Requested convergence on RMS density matrix=1.00D-08 within 128 cycles.
 Requested convergence on MAX density matrix=1.00D-06.
 Requested convergence on             energy=1.00D-06.
 No special actions if energy rises.
 Keep R1 ints in memory in canonical form, NReq=4707187.
 SCF Done:  E(RHF) =  -152.105995874     A.U. after   10 cycles
             Convg  =    0.8402D-08             -V/T =  1.9996
 Calling FoFJK, ICntrl=      2127 FMM=F ISym2X=0 I1Cent= 0 IOpClX= 0 NMat=1 NMatS=1 NMatT=0.
 ***** Axes restored to original set *****
 -------------------------------------------------------------------
 Center     Atomic                   Forces (Hartrees/Bohr)
 Number     Number              X              Y              Z
 -------------------------------------------------------------------
      1        8          -0.015935736    0.000082071   -0.002387943
      2        1           0.001177746   -0.000093902    0.002001565
      3        1          -0.002516468    0.000055854   -0.000603568
      4        8           0.014963163    0.000023504   -0.002280494
      5        1           0.001166124   -0.001455624    0.001600118
      6        1           0.001145172    0.001388098    0.001670321
 -------------------------------------------------------------------
 Cartesian Forces:  Max     0.015935736 RMS     0.005338142

 GradGradGradGradGradGradGradGradGradGradGradGradGradGradGradGradGradGrad
 Berny optimization.
 Using GEDIIS/GDIIS optimizer.
 Internal  Forces:  Max     0.007109909 RMS     0.002196694
 Search for a local minimum.
 Step number   2 out of a maximum of   35
 All quantities printed in internal units (Hartrees-Bohrs-Radians)
 Mixed Optimization -- RFO/linear search
 Update second derivatives using D2CorX and points    1    2
 DE= -5.30D-03 DEPred=-4.28D-03 R= 1.24D+00
 SS=  1.41D+00  RLast= 3.06D-01 DXNew= 5.0454D-01 9.1773D-01
 Trust test= 1.24D+00 RLast= 3.06D-01 DXMaxT set to 5.05D-01
 ITU=  1  0
 Use linear search instead of GDIIS.
     Eigenvalues ---    0.00757   0.00984   0.02240   0.02351   0.06249
     Eigenvalues ---    0.06973   0.11497   0.13259   0.46240   0.52185
     Eigenvalues ---    0.57958   0.63026
 RFO step:  Lambda=-2.58452391D-03 EMin= 7.57182928D-03
 Quartic linear search produced a step of  0.60045.
 Iteration  1 RMS(Cart)=  0.04552985 RMS(Int)=  0.00645770
 Iteration  2 RMS(Cart)=  0.00375442 RMS(Int)=  0.00075127
 Iteration  3 RMS(Cart)=  0.00001415 RMS(Int)=  0.00075093
 Iteration  4 RMS(Cart)=  0.00000001 RMS(Int)=  0.00075093
 Variable       Old X    -DE/DX   Delta X   Delta X   Delta X     New X
                                 (Linear)    (Quad)   (Total)
    R1        1.77944  -0.00086  -0.00707   0.00159  -0.00547   1.77396
    R2        1.78160  -0.00007  -0.02533   0.01499  -0.01026   1.77134
    R3        4.65434   0.00711   0.10607   0.13424   0.23930   4.89365
    R4        4.35779   0.00266   0.06540   0.09961   0.16541   4.52320
    R5        4.36006   0.00270   0.06578   0.10042   0.16652   4.52659
    R6        4.03727   0.00471   0.08642   0.12058   0.20761   4.24489
    R7        1.78022   0.00052  -0.02154   0.01413  -0.00773   1.77249
    R8        1.78022   0.00042  -0.02152   0.01409  -0.00773   1.77249
    A1        1.90193   0.00149   0.00899  -0.00355   0.00674   1.90867
    A2        2.93183   0.00042   0.00088  -0.00432  -0.00279   2.92904
    A3        2.82393   0.00004   0.01322   0.00097   0.01260   2.83653
    A4        2.80838   0.00001   0.01344   0.00135   0.01331   2.82169
    A5        1.27040  -0.00175  -0.01491  -0.01412  -0.02928   1.24112
    A6        1.27087  -0.00190  -0.01547  -0.01506  -0.03063   1.24024
    A7        0.65030  -0.00002  -0.02609  -0.00077  -0.02563   0.62467
    A8        1.43830  -0.00301  -0.02453  -0.02693  -0.05139   1.38692
    A9        1.44002  -0.00313  -0.02493  -0.02748  -0.05219   1.38783
   A10        1.79635   0.00082  -0.02607   0.03485   0.00725   1.80360
    D1        0.03827  -0.00006  -0.00134  -0.00339  -0.00471   0.03356
    D2       -1.71889   0.00054   0.01342   0.05400   0.06815  -1.65074
    D3        1.71830  -0.00093  -0.01429  -0.05398  -0.06881   1.64949
    D4       -2.56759  -0.00048   0.01910   0.02919   0.04786  -2.51972
    D5        2.56556   0.00050  -0.01846  -0.02642  -0.04436   2.52120
    D6       -3.09932  -0.00138  -0.01499  -0.05788  -0.07310   3.11076
    D7        1.46556  -0.00045  -0.00071  -0.00391  -0.00429   1.46127
         Item               Value     Threshold  Converged?
 Maximum Force            0.007110     0.000450     NO 
 RMS     Force            0.002197     0.000300     NO 
 Maximum Displacement     0.135632     0.001800     NO 
 RMS     Displacement     0.048543     0.001200     NO 
 Predicted change in Energy=-2.206596D-03
 GradGradGradGradGradGradGradGradGradGradGradGradGradGradGradGradGradGrad

                          Input orientation:                          
 ---------------------------------------------------------------------
 Center     Atomic      Atomic             Coordinates (Angstroms)
 Number     Number       Type             X           Y           Z
 ---------------------------------------------------------------------
      1          8           0       -1.227257   -0.000143   -0.063143
      2          1           0       -2.152528    0.003635    0.095260
      3          1           0       -0.771833   -0.013333    0.756030
      4          8           0        1.359958   -0.001144    0.048096
      5          1           0        1.021791   -0.728180   -0.438559
      6          1           0        1.022901    0.743146   -0.412548
 ---------------------------------------------------------------------
                    Distance matrix (angstroms):
                    1          2          3          4          5
     1  O    0.000000
     2  H    0.938739   0.000000
     3  H    0.937352   1.530759   0.000000
     4  O    2.589605   3.512806   2.246297   0.000000
     5  H    2.393574   3.301034   2.270493   0.937962   0.000000
     6  H    2.395366   3.299712   2.271322   0.937959   1.471556
                    6
     6  H    0.000000
 Stoichiometry    H4O2
 Framework group  C1[X(H4O2)]
 Deg. of freedom    12
 Full point group                 C1      NOp   1
 Largest Abelian subgroup         C1      NOp   1
 Largest concise Abelian subgroup C1      NOp   1
                         Standard orientation:                         
 ---------------------------------------------------------------------
 Center     Atomic      Atomic             Coordinates (Angstroms)
 Number     Number       Type             X           Y           Z
 ---------------------------------------------------------------------
      1          8           0        1.235320    0.001754   -0.076273
      2          1           0        2.162934   -0.006283    0.067598
      3          1           0        0.792652   -0.008178    0.749908
      4          8           0       -1.349860   -0.000909    0.075044
      5          1           0       -1.019112    0.739588   -0.396170
      6          1           0       -1.020155   -0.731888   -0.411505
 ---------------------------------------------------------------------
 Rotational constants (GHZ):    236.7708624      8.1437554      8.1374447
 Standard basis: 6-311++G(d,p) (5D, 7F)
 There are    72 symmetry adapted basis functions of A   symmetry.
 Integral buffers will be    262144 words long.
 Raffenetti 1 integral format.
 Two-electron integral symmetry is turned on.
    72 basis functions,   108 primitive gaussians,    74 cartesian basis functions
    10 alpha electrons       10 beta electrons
       nuclear repulsion energy        39.2488686333 Hartrees.
 NAtoms=    6 NActive=    6 NUniq=    6 SFac= 1.00D+00 NAtFMM=   50 NAOKFM=F Big=F
 One-electron integrals computed using PRISM.
 NBasis=    72 RedAO= T  NBF=    72
 NBsUse=    72 1.00D-06 NBFU=    72
 Initial guess read from the read-write file.
 B after Tr=     0.000000    0.000000    0.000000
         Rot=    1.000000    0.000000    0.000000    0.000000 Ang=   0.00 deg.
 Initial guess orbital symmetries:
       Occupied  (A) (A) (A) (A) (A) (A) (A) (A) (A) (A)
       Virtual   (A) (A) (A) (A) (A) (A) (A) (A) (A) (A) (A) (A)
                 (A) (A) (A) (A) (A) (A) (A) (A) (A) (A) (A) (A)
                 (A) (A) (A) (A) (A) (A) (A) (A) (A) (A) (A) (A)
                 (A) (A) (A) (A) (A) (A) (A) (A) (A) (A) (A) (A)
                 (A) (A) (A) (A) (A) (A) (A) (A) (A) (A) (A) (A)
                 (A) (A)
 Harris functional with IExCor=  205 diagonalized for initial guess.
 ExpMin= 3.60D-02 ExpMax= 8.59D+03 ExpMxC= 1.30D+03 IAcc=3 IRadAn=         0 AccDes= 0.00D+00
 HarFok:  IExCor=  205 AccDes= 0.00D+00 IRadAn=         0 IDoV= 1
 ScaDFX=  1.000000  1.000000  1.000000  1.000000
 FoFCou: FMM=F IPFlag=           0 FMFlag=      100000 FMFlg1=           0
         NFxFlg=           0 DoJE=T BraDBF=F KetDBF=T FulRan=T
         Omega=  0.000000  0.000000  1.000000  0.000000  0.000000 ICntrl=     500 IOpCl=  0
         NMat0=    1 NMatS0=    1 NMatT0=    0 NMatD0=    1 NMtDS0=    0 NMtDT0=    0
         I1Cent=           4 NGrid=           0.
 Petite list used in FoFCou.
 Requested convergence on RMS density matrix=1.00D-08 within 128 cycles.
 Requested convergence on MAX density matrix=1.00D-06.
 Requested convergence on             energy=1.00D-06.
 No special actions if energy rises.
 Keep R1 ints in memory in canonical form, NReq=4707187.
 SCF Done:  E(RHF) =  -152.109027522     A.U. after   12 cycles
             Convg  =    0.7833D-08             -V/T =  1.9996
 Calling FoFJK, ICntrl=      2127 FMM=F ISym2X=0 I1Cent= 0 IOpClX= 0 NMat=1 NMatS=1 NMatT=0.
 ***** Axes restored to original set *****
 -------------------------------------------------------------------
 Center     Atomic                   Forces (Hartrees/Bohr)
 Number     Number              X              Y              Z
 -------------------------------------------------------------------
      1        8          -0.007942874    0.000159498   -0.009518659
      2        1          -0.001484025   -0.000070887    0.003269754
      3        1           0.000016696   -0.000070211    0.005954227
      4        8           0.010685881   -0.000057911    0.003200117
      5        1          -0.000641106   -0.005288690   -0.001547949
      6        1          -0.000634571    0.005328201   -0.001357492
 -------------------------------------------------------------------
 Cartesian Forces:  Max     0.010685881 RMS     0.004642323

 GradGradGradGradGradGradGradGradGradGradGradGradGradGradGradGradGradGrad
 Berny optimization.
 Using GEDIIS/GDIIS optimizer.
 Internal  Forces:  Max     0.005957271 RMS     0.002261074
 Search for a local minimum.
 Step number   3 out of a maximum of   35
 All quantities printed in internal units (Hartrees-Bohrs-Radians)
 Mixed Optimization -- RFO/linear search
 Update second derivatives using D2CorX and points    2    3
 DE= -3.03D-03 DEPred=-2.21D-03 R= 1.37D+00
 SS=  1.41D+00  RLast= 4.28D-01 DXNew= 8.4853D-01 1.2833D+00
 Trust test= 1.37D+00 RLast= 4.28D-01 DXMaxT set to 8.49D-01
 ITU=  1  1  0
 Use linear search instead of GDIIS.
     Eigenvalues ---    0.00642   0.00927   0.01275   0.02542   0.06201
     Eigenvalues ---    0.06775   0.11801   0.13027   0.45103   0.52414
     Eigenvalues ---    0.57938   0.67190
 RFO step:  Lambda=-2.05011052D-03 EMin= 6.41990408D-03
 Quartic linear search produced a step of  1.98231.
 Iteration  1 RMS(Cart)=  0.05310637 RMS(Int)=  0.09610085
 Iteration  2 RMS(Cart)=  0.04898464 RMS(Int)=  0.01697061
 Iteration  3 RMS(Cart)=  0.00932380 RMS(Int)=  0.00424578
 Iteration  4 RMS(Cart)=  0.00006671 RMS(Int)=  0.00424443
 Iteration  5 RMS(Cart)=  0.00000013 RMS(Int)=  0.00424443
 Variable       Old X    -DE/DX   Delta X   Delta X   Delta X     New X
                                 (Linear)    (Quad)   (Total)
    R1        1.77396   0.00201  -0.01085   0.01086   0.00001   1.77397
    R2        1.77134   0.00596  -0.02034   0.02456   0.00392   1.77526
    R3        4.89365   0.00410   0.47437   0.04251   0.51515   5.40880
    R4        4.52320   0.00155   0.32789   0.05162   0.38095   4.90415
    R5        4.52659   0.00158   0.33010   0.05207   0.38342   4.91001
    R6        4.24489   0.00260   0.41155   0.04784   0.46014   4.70503
    R7        1.77249   0.00500  -0.01532   0.01924   0.00196   1.77445
    R8        1.77249   0.00497  -0.01533   0.01945   0.00217   1.77466
    A1        1.90867  -0.00025   0.01335  -0.03960  -0.02203   1.88664
    A2        2.92904  -0.00032  -0.00553  -0.03234  -0.03588   2.89316
    A3        2.83653  -0.00090   0.02497  -0.00104   0.01119   2.84772
    A4        2.82169  -0.00097   0.02639  -0.00315   0.01147   2.83316
    A5        1.24112   0.00007  -0.05804   0.00698  -0.05091   1.19021
    A6        1.24024  -0.00001  -0.06072   0.00701  -0.05319   1.18705
    A7        0.62467   0.00185  -0.05081   0.00225  -0.04548   0.57919
    A8        1.38692  -0.00090  -0.10186   0.00779  -0.09222   1.29470
    A9        1.38783  -0.00097  -0.10346   0.00801  -0.09322   1.29461
   A10        1.80360   0.00100   0.01438   0.01020   0.01688   1.82048
    D1        0.03356  -0.00001  -0.00933  -0.00022  -0.00936   0.02420
    D2       -1.65074   0.00052   0.13510   0.10976   0.24776  -1.40297
    D3        1.64949  -0.00073  -0.13640  -0.10463  -0.24324   1.40625
    D4       -2.51972  -0.00035   0.09488   0.10599   0.19803  -2.32169
    D5        2.52120   0.00039  -0.08794  -0.10089  -0.18541   2.33579
    D6        3.11076  -0.00094  -0.14490  -0.10257  -0.24851   2.86225
    D7        1.46127  -0.00022  -0.00850   0.00206  -0.00527   1.45600
         Item               Value     Threshold  Converged?
 Maximum Force            0.005957     0.000450     NO 
 RMS     Force            0.002261     0.000300     NO 
 Maximum Displacement     0.284777     0.001800     NO 
 RMS     Displacement     0.107850     0.001200     NO 
 Predicted change in Energy=-2.026197D-04
 GradGradGradGradGradGradGradGradGradGradGradGradGradGradGradGradGradGrad

                          Input orientation:                          
 ---------------------------------------------------------------------
 Center     Atomic      Atomic             Coordinates (Angstroms)
 Number     Number       Type             X           Y           Z
 ---------------------------------------------------------------------
      1          8           0       -1.350832   -0.000782   -0.065041
      2          1           0       -2.265723    0.001921    0.145214
      3          1           0       -0.866480   -0.011006    0.739830
      4          8           0        1.510655   -0.001023   -0.000579
      5          1           0        1.111566   -0.733961   -0.430988
      6          1           0        1.113846    0.748831   -0.403300
 ---------------------------------------------------------------------
                    Distance matrix (angstroms):
                    1          2          3          4          5
     1  O    0.000000
     2  H    0.938744   0.000000
     3  H    0.939425   1.520401   0.000000
     4  O    2.862213   3.779193   2.489794   0.000000
     5  H    2.595163   3.504227   2.409594   0.939000   0.000000
     6  H    2.598263   3.504315   2.409520   0.939107   1.483052
                    6
     6  H    0.000000
 Stoichiometry    H4O2
 Framework group  C1[X(H4O2)]
 Deg. of freedom    12
 Full point group                 C1      NOp   1
 Largest Abelian subgroup         C1      NOp   1
 Largest concise Abelian subgroup C1      NOp   1
                         Standard orientation:                         
 ---------------------------------------------------------------------
 Center     Atomic      Atomic             Coordinates (Angstroms)
 Number     Number       Type             X           Y           Z
 ---------------------------------------------------------------------
      1          8           0        1.367598    0.002714   -0.081807
      2          1           0        2.288311   -0.007205    0.101029
      3          1           0        0.907290   -0.017139    0.736875
      4          8           0       -1.490726   -0.001177    0.067293
      5          1           0       -1.104198    0.747424   -0.347330
      6          1           0       -1.106376   -0.735378   -0.374461
 ---------------------------------------------------------------------
 Rotational constants (GHZ):    244.2527648      6.7381113      6.7248494
 Standard basis: 6-311++G(d,p) (5D, 7F)
 There are    72 symmetry adapted basis functions of A   symmetry.
 Integral buffers will be    262144 words long.
 Raffenetti 1 integral format.
 Two-electron integral symmetry is turned on.
    72 basis functions,   108 primitive gaussians,    74 cartesian basis functions
    10 alpha electrons       10 beta electrons
       nuclear repulsion energy        37.3921932517 Hartrees.
 NAtoms=    6 NActive=    6 NUniq=    6 SFac= 1.00D+00 NAtFMM=   50 NAOKFM=F Big=F
 One-electron integrals computed using PRISM.
 NBasis=    72 RedAO= T  NBF=    72
 NBsUse=    72 1.00D-06 NBFU=    72
 Initial guess read from the read-write file.
 B after Tr=     0.000000    0.000000    0.000000
         Rot=    1.000000    0.000000    0.000000    0.000000 Ang=   0.00 deg.
 Initial guess orbital symmetries:
       Occupied  (A) (A) (A) (A) (A) (A) (A) (A) (A) (A)
       Virtual   (A) (A) (A) (A) (A) (A) (A) (A) (A) (A) (A) (A)
                 (A) (A) (A) (A) (A) (A) (A) (A) (A) (A) (A) (A)
                 (A) (A) (A) (A) (A) (A) (A) (A) (A) (A) (A) (A)
                 (A) (A) (A) (A) (A) (A) (A) (A) (A) (A) (A) (A)
                 (A) (A) (A) (A) (A) (A) (A) (A) (A) (A) (A) (A)
                 (A) (A)
 Harris functional with IExCor=  205 diagonalized for initial guess.
 ExpMin= 3.60D-02 ExpMax= 8.59D+03 ExpMxC= 1.30D+03 IAcc=3 IRadAn=         0 AccDes= 0.00D+00
 HarFok:  IExCor=  205 AccDes= 0.00D+00 IRadAn=         0 IDoV= 1
 ScaDFX=  1.000000  1.000000  1.000000  1.000000
 FoFCou: FMM=F IPFlag=           0 FMFlag=      100000 FMFlg1=           0
         NFxFlg=           0 DoJE=T BraDBF=F KetDBF=T FulRan=T
         Omega=  0.000000  0.000000  1.000000  0.000000  0.000000 ICntrl=     500 IOpCl=  0
         NMat0=    1 NMatS0=    1 NMatT0=    0 NMatD0=    1 NMtDS0=    0 NMtDT0=    0
         I1Cent=           4 NGrid=           0.
 Petite list used in FoFCou.
 Requested convergence on RMS density matrix=1.00D-08 within 128 cycles.
 Requested convergence on MAX density matrix=1.00D-06.
 Requested convergence on             energy=1.00D-06.
 No special actions if energy rises.
 Keep R1 ints in memory in canonical form, NReq=4707187.
 SCF Done:  E(RHF) =  -152.111486995     A.U. after   10 cycles
             Convg  =    0.9087D-08             -V/T =  1.9999
 Calling FoFJK, ICntrl=      2127 FMM=F ISym2X=0 I1Cent= 0 IOpClX= 0 NMat=1 NMatS=1 NMatT=0.
 ***** Axes restored to original set *****
 -------------------------------------------------------------------
 Center     Atomic                   Forces (Hartrees/Bohr)
 Number     Number              X              Y              Z
 -------------------------------------------------------------------
      1        8           0.000463513    0.000084676   -0.005682411
      2        1          -0.001854346   -0.000029474    0.002086784
      3        1          -0.000127146   -0.000064651    0.004064005
      4        8           0.002978054    0.000063741    0.003290782
      5        1          -0.000776574   -0.003660641   -0.001969402
      6        1          -0.000683501    0.003606348   -0.001789757
 -------------------------------------------------------------------
 Cartesian Forces:  Max     0.005682411 RMS     0.002484425

 GradGradGradGradGradGradGradGradGradGradGradGradGradGradGradGradGradGrad
 Berny optimization.
 Using GEDIIS/GDIIS optimizer.
 Internal  Forces:  Max     0.003763668 RMS     0.001441867
 Search for a local minimum.
 Step number   4 out of a maximum of   35
 All quantities printed in internal units (Hartrees-Bohrs-Radians)
 Mixed Optimization -- RFO/linear search
 Update second derivatives using D2CorX and points    3    4
 DE= -2.46D-03 DEPred=-2.03D-04 R= 1.21D+01
 SS=  1.41D+00  RLast= 1.03D+00 DXNew= 1.4270D+00 3.0774D+00
 Trust test= 1.21D+01 RLast= 1.03D+00 DXMaxT set to 1.43D+00
 ITU=  1  1  1  0
 Use linear search instead of GDIIS.
     Eigenvalues ---    0.00371   0.00824   0.01058   0.03113   0.06200
     Eigenvalues ---    0.06612   0.12173   0.12744   0.40351   0.52554
     Eigenvalues ---    0.57951   0.66348
 RFO step:  Lambda=-1.54831416D-04 EMin= 3.71306586D-03
 Quartic linear search produced a step of  0.35513.
 Iteration  1 RMS(Cart)=  0.03966334 RMS(Int)=  0.00195933
 Iteration  2 RMS(Cart)=  0.00028413 RMS(Int)=  0.00175149
 Iteration  3 RMS(Cart)=  0.00000058 RMS(Int)=  0.00175149
 Variable       Old X    -DE/DX   Delta X   Delta X   Delta X     New X
                                 (Linear)    (Quad)   (Total)
    R1        1.77397   0.00227   0.00000   0.00372   0.00373   1.77769
    R2        1.77526   0.00336   0.00139   0.00293   0.00418   1.77944
    R3        5.40880   0.00038   0.18295  -0.00358   0.17915   5.58795
    R4        4.90415   0.00050   0.13529   0.01014   0.14599   5.05013
    R5        4.91001   0.00051   0.13617   0.01002   0.14672   5.05673
    R6        4.70503   0.00050   0.16341   0.00090   0.16423   4.86926
    R7        1.77445   0.00376   0.00070   0.00504   0.00462   1.77907
    R8        1.77466   0.00364   0.00077   0.00471   0.00451   1.77916
    A1        1.88664  -0.00111  -0.00782  -0.01337  -0.02098   1.86567
    A2        2.89316  -0.00056  -0.01274  -0.01048  -0.02379   2.86937
    A3        2.84772  -0.00066   0.00397  -0.00187  -0.00365   2.84407
    A4        2.83316  -0.00065   0.00407  -0.00240  -0.00371   2.82945
    A5        1.19021   0.00096  -0.01808   0.00542  -0.01272   1.17748
    A6        1.18705   0.00098  -0.01889   0.00586  -0.01297   1.17408
    A7        0.57919   0.00127  -0.01615   0.00025  -0.01519   0.56400
    A8        1.29470   0.00072  -0.03275   0.01001  -0.02225   1.27245
    A9        1.29461   0.00074  -0.03311   0.01041  -0.02209   1.27251
   A10        1.82048   0.00039   0.00600  -0.00072   0.00252   1.82300
    D1        0.02420   0.00001  -0.00332   0.00113  -0.00207   0.02214
    D2       -1.40297   0.00004   0.08799   0.02758   0.11590  -1.28708
    D3        1.40625  -0.00002  -0.08638  -0.02448  -0.11116   1.29509
    D4       -2.32169   0.00005   0.07033   0.03279   0.10202  -2.21967
    D5        2.33579  -0.00015  -0.06585  -0.03130  -0.09609   2.23970
    D6        2.86225   0.00000  -0.08825  -0.02330  -0.11162   2.75064
    D7        1.45600   0.00002  -0.00187   0.00117  -0.00046   1.45555
         Item               Value     Threshold  Converged?
 Maximum Force            0.003764     0.000450     NO 
 RMS     Force            0.001442     0.000300     NO 
 Maximum Displacement     0.095063     0.001800     NO 
 RMS     Displacement     0.039634     0.001200     NO 
 Predicted change in Energy=-1.412471D-05
 GradGradGradGradGradGradGradGradGradGradGradGradGradGradGradGradGradGrad

                          Input orientation:                          
 ---------------------------------------------------------------------
 Center     Atomic      Atomic             Coordinates (Angstroms)
 Number     Number       Type             X           Y           Z
 ---------------------------------------------------------------------
      1          8           0       -1.395545   -0.000935   -0.068619
      2          1           0       -2.306159    0.001535    0.167435
      3          1           0       -0.904593   -0.010673    0.734846
      4          8           0        1.560960   -0.000856   -0.013719
      5          1           0        1.147892   -0.736573   -0.431346
      6          1           0        1.150476    0.751482   -0.403460
 ---------------------------------------------------------------------
                    Distance matrix (angstroms):
                    1          2          3          4          5
     1  O    0.000000
     2  H    0.940715   0.000000
     3  H    0.941639   1.512115   0.000000
     4  O    2.957015   3.871361   2.576704   0.000000
     5  H    2.672415   3.582430   2.469743   0.941445   0.000000
     6  H    2.675906   3.582829   2.469804   0.941491   1.488318
                    6
     6  H    0.000000
 Stoichiometry    H4O2
 Framework group  C1[X(H4O2)]
 Deg. of freedom    12
 Full point group                 C1      NOp   1
 Largest Abelian subgroup         C1      NOp   1
 Largest concise Abelian subgroup C1      NOp   1
                         Standard orientation:                         
 ---------------------------------------------------------------------
 Center     Atomic      Atomic             Coordinates (Angstroms)
 Number     Number       Type             X           Y           Z
 ---------------------------------------------------------------------
      1          8           0        1.414061    0.002901   -0.085230
      2          1           0        2.331896   -0.007873    0.120702
      3          1           0        0.949614   -0.017977    0.733634
      4          8           0       -1.539074   -0.001172    0.066138
      5          1           0       -1.139436    0.750035   -0.336721
      6          1           0       -1.141973   -0.738015   -0.364883
 ---------------------------------------------------------------------
 Rotational constants (GHZ):    244.4553119      6.3293772      6.3162897
 Standard basis: 6-311++G(d,p) (5D, 7F)
 There are    72 symmetry adapted basis functions of A   symmetry.
 Integral buffers will be    262144 words long.
 Raffenetti 1 integral format.
 Two-electron integral symmetry is turned on.
    72 basis functions,   108 primitive gaussians,    74 cartesian basis functions
    10 alpha electrons       10 beta electrons
       nuclear repulsion energy        36.7745485402 Hartrees.
 NAtoms=    6 NActive=    6 NUniq=    6 SFac= 1.00D+00 NAtFMM=   50 NAOKFM=F Big=F
 One-electron integrals computed using PRISM.
 NBasis=    72 RedAO= T  NBF=    72
 NBsUse=    72 1.00D-06 NBFU=    72
 Initial guess read from the read-write file.
 B after Tr=     0.000000    0.000000    0.000000
         Rot=    1.000000    0.000000    0.000000    0.000000 Ang=   0.00 deg.
 Initial guess orbital symmetries:
       Occupied  (A) (A) (A) (A) (A) (A) (A) (A) (A) (A)
       Virtual   (A) (A) (A) (A) (A) (A) (A) (A) (A) (A) (A) (A)
                 (A) (A) (A) (A) (A) (A) (A) (A) (A) (A) (A) (A)
                 (A) (A) (A) (A) (A) (A) (A) (A) (A) (A) (A) (A)
                 (A) (A) (A) (A) (A) (A) (A) (A) (A) (A) (A) (A)
                 (A) (A) (A) (A) (A) (A) (A) (A) (A) (A) (A) (A)
                 (A) (A)
 Harris functional with IExCor=  205 diagonalized for initial guess.
 ExpMin= 3.60D-02 ExpMax= 8.59D+03 ExpMxC= 1.30D+03 IAcc=3 IRadAn=         0 AccDes= 0.00D+00
 HarFok:  IExCor=  205 AccDes= 0.00D+00 IRadAn=         0 IDoV= 1
 ScaDFX=  1.000000  1.000000  1.000000  1.000000
 FoFCou: FMM=F IPFlag=           0 FMFlag=      100000 FMFlg1=           0
         NFxFlg=           0 DoJE=T BraDBF=F KetDBF=T FulRan=T
         Omega=  0.000000  0.000000  1.000000  0.000000  0.000000 ICntrl=     500 IOpCl=  0
         NMat0=    1 NMatS0=    1 NMatT0=    0 NMatD0=    1 NMtDS0=    0 NMtDT0=    0
         I1Cent=           4 NGrid=           0.
 Petite list used in FoFCou.
 Requested convergence on RMS density matrix=1.00D-08 within 128 cycles.
 Requested convergence on MAX density matrix=1.00D-06.
 Requested convergence on             energy=1.00D-06.
 No special actions if energy rises.
 Keep R1 ints in memory in canonical form, NReq=4707187.
 SCF Done:  E(RHF) =  -152.111658854     A.U. after   10 cycles
             Convg  =    0.3226D-08             -V/T =  2.0000
 Calling FoFJK, ICntrl=      2127 FMM=F ISym2X=0 I1Cent= 0 IOpClX= 0 NMat=1 NMatS=1 NMatT=0.
 ***** Axes restored to original set *****
 -------------------------------------------------------------------
 Center     Atomic                   Forces (Hartrees/Bohr)
 Number     Number              X              Y              Z
 -------------------------------------------------------------------
      1        8           0.000060435    0.000042989   -0.000900747
      2        1          -0.000430669   -0.000014144    0.000057102
      3        1           0.000054040   -0.000040173    0.001394312
      4        8          -0.000452237    0.000051724    0.001016035
      5        1           0.000356163   -0.001289937   -0.000812395
      6        1           0.000412267    0.001249541   -0.000754306
 -------------------------------------------------------------------
 Cartesian Forces:  Max     0.001394312 RMS     0.000704943

 GradGradGradGradGradGradGradGradGradGradGradGradGradGradGradGradGradGrad
 Berny optimization.
 Using GEDIIS/GDIIS optimizer.
 Internal  Forces:  Max     0.001054977 RMS     0.000490339
 Search for a local minimum.
 Step number   5 out of a maximum of   35
 All quantities printed in internal units (Hartrees-Bohrs-Radians)
 Mixed Optimization -- En-DIIS/RFO-DIIS
 Update second derivatives using D2CorX and points    4    5
 DE= -1.72D-04 DEPred=-1.41D-05 R= 1.22D+01
 SS=  1.41D+00  RLast= 4.03D-01 DXNew= 2.4000D+00 1.2092D+00
 Trust test= 1.22D+01 RLast= 4.03D-01 DXMaxT set to 1.43D+00
 ITU=  1  1  1  1  0
 Use linear search instead of GDIIS.
     Eigenvalues ---    0.00179   0.00781   0.01119   0.02988   0.06211
     Eigenvalues ---    0.06639   0.11917   0.12733   0.39883   0.52684
     Eigenvalues ---    0.57981   0.67574
 RFO step:  Lambda=-3.05694162D-05 EMin= 1.79279207D-03
 Quartic linear search produced a step of  0.05088.
 Iteration  1 RMS(Cart)=  0.00318865 RMS(Int)=  0.00004164
 Iteration  2 RMS(Cart)=  0.00001176 RMS(Int)=  0.00003672
 Iteration  3 RMS(Cart)=  0.00000000 RMS(Int)=  0.00003672
 Variable       Old X    -DE/DX   Delta X   Delta X   Delta X     New X
                                 (Linear)    (Quad)   (Total)
    R1        1.77769   0.00043   0.00019   0.00053   0.00072   1.77842
    R2        1.77944   0.00104   0.00021   0.00127   0.00148   1.78092
    R3        5.58795  -0.00032   0.00912  -0.00917  -0.00007   5.58788
    R4        5.05013   0.00048   0.00743   0.00342   0.01087   5.06100
    R5        5.05673   0.00047   0.00747   0.00310   0.01058   5.06731
    R6        4.86926  -0.00009   0.00836  -0.00653   0.00182   4.87109
    R7        1.77907   0.00105   0.00024   0.00167   0.00188   1.78095
    R8        1.77916   0.00099   0.00023   0.00152   0.00173   1.78089
    A1        1.86567  -0.00047  -0.00107  -0.00072  -0.00181   1.86386
    A2        2.86937  -0.00020  -0.00121   0.00074  -0.00050   2.86888
    A3        2.84407  -0.00019  -0.00019   0.00063   0.00034   2.84440
    A4        2.82945  -0.00013  -0.00019   0.00101   0.00071   2.83016
    A5        1.17748   0.00046  -0.00065   0.00320   0.00254   1.18003
    A6        1.17408   0.00050  -0.00066   0.00368   0.00301   1.17709
    A7        0.56400   0.00035  -0.00077   0.00054  -0.00023   0.56376
    A8        1.27245   0.00069  -0.00113   0.00834   0.00721   1.27966
    A9        1.27251   0.00073  -0.00112   0.00866   0.00754   1.28005
   A10        1.82300   0.00031   0.00013   0.00175   0.00181   1.82481
    D1        0.02214  -0.00002  -0.00011   0.00029   0.00019   0.02233
    D2       -1.28708  -0.00012   0.00590  -0.00773  -0.00183  -1.28891
    D3        1.29509   0.00017  -0.00566   0.00845   0.00278   1.29787
    D4       -2.21967   0.00002   0.00519  -0.00415   0.00101  -2.21866
    D5        2.23970  -0.00015  -0.00489   0.00312  -0.00174   2.23796
    D6        2.75064   0.00017  -0.00568   0.00867   0.00298   2.75362
    D7        1.45555   0.00001  -0.00002   0.00022   0.00020   1.45575
         Item               Value     Threshold  Converged?
 Maximum Force            0.001055     0.000450     NO 
 RMS     Force            0.000490     0.000300     NO 
 Maximum Displacement     0.007118     0.001800     NO 
 RMS     Displacement     0.003187     0.001200     NO 
 Predicted change in Energy=-1.575429D-05
 GradGradGradGradGradGradGradGradGradGradGradGradGradGradGradGradGradGrad

                          Input orientation:                          
 ---------------------------------------------------------------------
 Center     Atomic      Atomic             Coordinates (Angstroms)
 Number     Number       Type             X           Y           Z
 ---------------------------------------------------------------------
      1          8           0       -1.396982   -0.000743   -0.068215
      2          1           0       -2.308018    0.001634    0.167737
      3          1           0       -0.907253   -0.011076    0.736906
      4          8           0        1.559447   -0.000771   -0.011201
      5          1           0        1.151658   -0.737839   -0.433849
      6          1           0        1.154179    0.752775   -0.406241
 ---------------------------------------------------------------------
                    Distance matrix (angstroms):
                    1          2          3          4          5
     1  O    0.000000
     2  H    0.941098   0.000000
     3  H    0.942422   1.512037   0.000000
     4  O    2.956979   3.871603   2.577669   0.000000
     5  H    2.678165   3.588605   2.477492   0.942439   0.000000
     6  H    2.681506   3.588938   2.477853   0.942407   1.490872
                    6
     6  H    0.000000
 Stoichiometry    H4O2
 Framework group  C1[X(H4O2)]
 Deg. of freedom    12
 Full point group                 C1      NOp   1
 Largest Abelian subgroup         C1      NOp   1
 Largest concise Abelian subgroup C1      NOp   1
                         Standard orientation:                         
 ---------------------------------------------------------------------
 Center     Atomic      Atomic             Coordinates (Angstroms)
 Number     Number       Type             X           Y           Z
 ---------------------------------------------------------------------
      1          8           0        1.414472    0.002662   -0.085430
      2          1           0        2.332661   -0.007570    0.120698
      3          1           0        0.951046   -0.015947    0.734966
      4          8           0       -1.538566   -0.001088    0.067140
      5          1           0       -1.144248    0.750792   -0.341984
      6          1           0       -1.146709   -0.739862   -0.367361
 ---------------------------------------------------------------------
 Rotational constants (GHZ):    242.8933905      6.3268075      6.3141795
 Standard basis: 6-311++G(d,p) (5D, 7F)
 There are    72 symmetry adapted basis functions of A   symmetry.
 Integral buffers will be    262144 words long.
 Raffenetti 1 integral format.
 Two-electron integral symmetry is turned on.
    72 basis functions,   108 primitive gaussians,    74 cartesian basis functions
    10 alpha electrons       10 beta electrons
       nuclear repulsion energy        36.7501589071 Hartrees.
 NAtoms=    6 NActive=    6 NUniq=    6 SFac= 1.00D+00 NAtFMM=   50 NAOKFM=F Big=F
 One-electron integrals computed using PRISM.
 NBasis=    72 RedAO= T  NBF=    72
 NBsUse=    72 1.00D-06 NBFU=    72
 Initial guess read from the read-write file.
 B after Tr=     0.000000    0.000000    0.000000
         Rot=    1.000000    0.000000    0.000000    0.000000 Ang=   0.00 deg.
 Initial guess orbital symmetries:
       Occupied  (A) (A) (A) (A) (A) (A) (A) (A) (A) (A)
       Virtual   (A) (A) (A) (A) (A) (A) (A) (A) (A) (A) (A) (A)
                 (A) (A) (A) (A) (A) (A) (A) (A) (A) (A) (A) (A)
                 (A) (A) (A) (A) (A) (A) (A) (A) (A) (A) (A) (A)
                 (A) (A) (A) (A) (A) (A) (A) (A) (A) (A) (A) (A)
                 (A) (A) (A) (A) (A) (A) (A) (A) (A) (A) (A) (A)
                 (A) (A)
 Requested convergence on RMS density matrix=1.00D-08 within 128 cycles.
 Requested convergence on MAX density matrix=1.00D-06.
 Requested convergence on             energy=1.00D-06.
 No special actions if energy rises.
 Keep R1 ints in memory in canonical form, NReq=4707187.
 SCF Done:  E(RHF) =  -152.111685619     A.U. after    9 cycles
             Convg  =    0.3262D-08             -V/T =  2.0000
 Calling FoFJK, ICntrl=      2127 FMM=F ISym2X=0 I1Cent= 0 IOpClX= 0 NMat=1 NMatS=1 NMatT=0.
 ***** Axes restored to original set *****
 -------------------------------------------------------------------
 Center     Atomic                   Forces (Hartrees/Bohr)
 Number     Number              X              Y              Z
 -------------------------------------------------------------------
      1        8          -0.000030954    0.000030693    0.000143669
      2        1          -0.000069876   -0.000013733   -0.000172086
      3        1          -0.000202463   -0.000025829    0.000514187
      4        8          -0.001140799   -0.000010332    0.000190838
      5        1           0.000718731   -0.000178536   -0.000328306
      6        1           0.000725360    0.000197738   -0.000348302
 -------------------------------------------------------------------
 Cartesian Forces:  Max     0.001140799 RMS     0.000411232

 GradGradGradGradGradGradGradGradGradGradGradGradGradGradGradGradGradGrad
 Berny optimization.
 Using GEDIIS/GDIIS optimizer.
 Internal  Forces:  Max     0.000600135 RMS     0.000257136
 Search for a local minimum.
 Step number   6 out of a maximum of   35
 All quantities printed in internal units (Hartrees-Bohrs-Radians)
 Mixed Optimization -- En-DIIS/RFO-DIIS
 Swaping is turned off.
 Update second derivatives using D2CorX and points    4    5    6
 DE= -2.68D-05 DEPred=-1.58D-05 R= 1.70D+00
 SS=  1.41D+00  RLast= 2.00D-02 DXNew= 2.4000D+00 5.9892D-02
 Trust test= 1.70D+00 RLast= 2.00D-02 DXMaxT set to 1.43D+00
 ITU=  1  1  1  1  1  0
     Eigenvalues ---    0.00181   0.00781   0.00960   0.02070   0.03000
     Eigenvalues ---    0.06217   0.09931   0.12835   0.39887   0.53238
     Eigenvalues ---    0.58017   0.96252
 En-DIIS/RFO-DIIS IScMMF=        0 using points:     6    5
 RFO step:  Lambda=-1.14864447D-05.
 DidBck=F Rises=F RFO-DIIS coefs:    3.34640   -2.34640
 Iteration  1 RMS(Cart)=  0.01241713 RMS(Int)=  0.00038916
 Iteration  2 RMS(Cart)=  0.00019379 RMS(Int)=  0.00021398
 Iteration  3 RMS(Cart)=  0.00000011 RMS(Int)=  0.00021398
 Variable       Old X    -DE/DX   Delta X   Delta X   Delta X     New X
                                  (DIIS)     (GDIIS)  (Total)
    R1        1.77842   0.00002   0.00170  -0.00028   0.00142   1.77984
    R2        1.78092   0.00019   0.00347  -0.00041   0.00305   1.78397
    R3        5.58788  -0.00040  -0.00016  -0.00086  -0.00136   5.58652
    R4        5.06100   0.00044   0.02549   0.01689   0.04255   5.10355
    R5        5.06731   0.00043   0.02483   0.01639   0.04141   5.10872
    R6        4.87109  -0.00004   0.00428   0.00136   0.00561   4.87670
    R7        1.78095  -0.00004   0.00441  -0.00158   0.00290   1.78386
    R8        1.78089  -0.00004   0.00406  -0.00133   0.00278   1.78367
    A1        1.86386  -0.00026  -0.00424  -0.00084  -0.00512   1.85874
    A2        2.86888  -0.00003  -0.00117   0.00037  -0.00069   2.86819
    A3        2.84440   0.00001   0.00079   0.00181   0.00256   2.84696
    A4        2.83016   0.00009   0.00167   0.00272   0.00433   2.83449
    A5        1.18003   0.00030   0.00596   0.00323   0.00912   1.18915
    A6        1.17709   0.00035   0.00706   0.00396   0.01090   1.18799
    A7        0.56376  -0.00004  -0.00055  -0.00243  -0.00308   0.56069
    A8        1.27966   0.00055   0.01692   0.01151   0.02847   1.30813
    A9        1.28005   0.00060   0.01769   0.01197   0.02966   1.30971
   A10        1.82481   0.00010   0.00424  -0.00024   0.00345   1.82826
    D1        0.02233  -0.00004   0.00044  -0.00053  -0.00006   0.02226
    D2       -1.28891  -0.00008  -0.00429  -0.00581  -0.00981  -1.29871
    D3        1.29787   0.00016   0.00653   0.00675   0.01299   1.31086
    D4       -2.21866   0.00007   0.00237   0.00058   0.00260  -2.21605
    D5        2.23796  -0.00017  -0.00408  -0.00204  -0.00563   2.23233
    D6        2.75362   0.00019   0.00700   0.00730   0.01403   2.76765
    D7        1.45575   0.00003   0.00047   0.00055   0.00104   1.45679
         Item               Value     Threshold  Converged?
 Maximum Force            0.000600     0.000450     NO 
 RMS     Force            0.000257     0.000300     YES
 Maximum Displacement     0.028726     0.001800     NO 
 RMS     Displacement     0.012394     0.001200     NO 
 Predicted change in Energy=-4.321563D-05
 GradGradGradGradGradGradGradGradGradGradGradGradGradGradGradGradGradGrad

                          Input orientation:                          
 ---------------------------------------------------------------------
 Center     Atomic      Atomic             Coordinates (Angstroms)
 Number     Number       Type             X           Y           Z
 ---------------------------------------------------------------------
      1          8           0       -1.402831    0.000041   -0.065694
      2          1           0       -2.315009    0.001913    0.168838
      3          1           0       -0.917833   -0.012540    0.744137
      4          8           0        1.552729   -0.000551   -0.001437
      5          1           0        1.166859   -0.739946   -0.443581
      6          1           0        1.169117    0.755062   -0.417127
 ---------------------------------------------------------------------
                    Distance matrix (angstroms):
                    1          2          3          4          5
     1  O    0.000000
     2  H    0.941848   0.000000
     3  H    0.944038   1.511052   0.000000
     4  O    2.956258   3.871485   2.580640   0.000000
     5  H    2.700682   3.612315   2.507137   0.943976   0.000000
     6  H    2.703419   3.612440   2.508607   0.943879   1.495243
                    6
     6  H    0.000000
 Stoichiometry    H4O2
 Framework group  C1[X(H4O2)]
 Deg. of freedom    12
 Full point group                 C1      NOp   1
 Largest Abelian subgroup         C1      NOp   1
 Largest concise Abelian subgroup C1      NOp   1
                         Standard orientation:                         
 ---------------------------------------------------------------------
 Center     Atomic      Atomic             Coordinates (Angstroms)
 Number     Number       Type             X           Y           Z
 ---------------------------------------------------------------------
      1          8           0        1.415944    0.001613   -0.085971
      2          1           0        2.335040   -0.006072    0.119655
      3          1           0        0.956635   -0.007276    0.738749
      4          8           0       -1.536137   -0.000618    0.071108
      5          1           0       -1.164022    0.750288   -0.363360
      6          1           0       -1.166109   -0.744899   -0.376141
 ---------------------------------------------------------------------
 Rotational constants (GHZ):    238.1298297      6.3189277      6.3085876
 Standard basis: 6-311++G(d,p) (5D, 7F)
 There are    72 symmetry adapted basis functions of A   symmetry.
 Integral buffers will be    262144 words long.
 Raffenetti 1 integral format.
 Two-electron integral symmetry is turned on.
    72 basis functions,   108 primitive gaussians,    74 cartesian basis functions
    10 alpha electrons       10 beta electrons
       nuclear repulsion energy        36.6916489189 Hartrees.
 NAtoms=    6 NActive=    6 NUniq=    6 SFac= 1.00D+00 NAtFMM=   50 NAOKFM=F Big=F
 One-electron integrals computed using PRISM.
 NBasis=    72 RedAO= T  NBF=    72
 NBsUse=    72 1.00D-06 NBFU=    72
 Initial guess read from the read-write file.
 B after Tr=     0.000000    0.000000    0.000000
         Rot=    1.000000    0.000000    0.000000    0.000000 Ang=   0.00 deg.
 Initial guess orbital symmetries:
       Occupied  (A) (A) (A) (A) (A) (A) (A) (A) (A) (A)
       Virtual   (A) (A) (A) (A) (A) (A) (A) (A) (A) (A) (A) (A)
                 (A) (A) (A) (A) (A) (A) (A) (A) (A) (A) (A) (A)
                 (A) (A) (A) (A) (A) (A) (A) (A) (A) (A) (A) (A)
                 (A) (A) (A) (A) (A) (A) (A) (A) (A) (A) (A) (A)
                 (A) (A) (A) (A) (A) (A) (A) (A) (A) (A) (A) (A)
                 (A) (A)
 Harris functional with IExCor=  205 diagonalized for initial guess.
 ExpMin= 3.60D-02 ExpMax= 8.59D+03 ExpMxC= 1.30D+03 IAcc=3 IRadAn=         0 AccDes= 0.00D+00
 HarFok:  IExCor=  205 AccDes= 0.00D+00 IRadAn=         0 IDoV= 1
 ScaDFX=  1.000000  1.000000  1.000000  1.000000
 FoFCou: FMM=F IPFlag=           0 FMFlag=      100000 FMFlg1=           0
         NFxFlg=           0 DoJE=T BraDBF=F KetDBF=T FulRan=T
         Omega=  0.000000  0.000000  1.000000  0.000000  0.000000 ICntrl=     500 IOpCl=  0
         NMat0=    1 NMatS0=    1 NMatT0=    0 NMatD0=    1 NMtDS0=    0 NMtDT0=    0
         I1Cent=           4 NGrid=           0.
 Petite list used in FoFCou.
 Requested convergence on RMS density matrix=1.00D-08 within 128 cycles.
 Requested convergence on MAX density matrix=1.00D-06.
 Requested convergence on             energy=1.00D-06.
 No special actions if energy rises.
 Keep R1 ints in memory in canonical form, NReq=4707187.
 SCF Done:  E(RHF) =  -152.111742111     A.U. after   10 cycles
             Convg  =    0.3542D-08             -V/T =  2.0001
 Calling FoFJK, ICntrl=      2127 FMM=F ISym2X=0 I1Cent= 0 IOpClX= 0 NMat=1 NMatS=1 NMatT=0.
 ***** Axes restored to original set *****
 -------------------------------------------------------------------
 Center     Atomic                   Forces (Hartrees/Bohr)
 Number     Number              X              Y              Z
 -------------------------------------------------------------------
      1        8          -0.000386095   -0.000008155    0.002402752
      2        1           0.000566897   -0.000008975   -0.000738590
      3        1          -0.000436335    0.000017613   -0.001426108
      4        8          -0.001885870   -0.000056777   -0.001281426
      5        1           0.001093181    0.001573017    0.000573891
      6        1           0.001048223   -0.001516723    0.000469481
 -------------------------------------------------------------------
 Cartesian Forces:  Max     0.002402752 RMS     0.001101363

 GradGradGradGradGradGradGradGradGradGradGradGradGradGradGradGradGradGrad
 Berny optimization.
 Using GEDIIS/GDIIS optimizer.
 Internal  Forces:  Max     0.001760288 RMS     0.000636510
 Search for a local minimum.
 Step number   7 out of a maximum of   35
 All quantities printed in internal units (Hartrees-Bohrs-Radians)
 Mixed Optimization -- En-DIIS/RFO-DIIS
 Swaping is turned off.
 Update second derivatives using D2CorX and points    4    5    6    7
 DE= -5.65D-05 DEPred=-4.32D-05 R= 1.31D+00
 SS=  1.41D+00  RLast= 7.78D-02 DXNew= 2.4000D+00 2.3341D-01
 Trust test= 1.31D+00 RLast= 7.78D-02 DXMaxT set to 1.43D+00
 ITU=  1  1  1  1  1  1  0
     Eigenvalues ---    0.00170   0.00685   0.00793   0.01640   0.03035
     Eigenvalues ---    0.06227   0.10335   0.12990   0.39764   0.53267
     Eigenvalues ---    0.58034   1.23077
 En-DIIS/RFO-DIIS IScMMF=        0 using points:     7    6    5
 RFO step:  Lambda=-1.14035377D-05.
 DidBck=F Rises=F RFO-DIIS coefs:    3.03790   -6.30511    4.26721
 Iteration  1 RMS(Cart)=  0.01428766 RMS(Int)=  0.00042581
 Iteration  2 RMS(Cart)=  0.00022814 RMS(Int)=  0.00014387
 Iteration  3 RMS(Cart)=  0.00000013 RMS(Int)=  0.00014387
 Variable       Old X    -DE/DX   Delta X   Delta X   Delta X     New X
                                  (DIIS)     (GDIIS)  (Total)
    R1        1.77984  -0.00073  -0.00019  -0.00036  -0.00055   1.77928
    R2        1.78397  -0.00150  -0.00009  -0.00126  -0.00137   1.78260
    R3        5.58652  -0.00036  -0.00248   0.00862   0.00600   5.59252
    R4        5.10355   0.00032   0.04035   0.01383   0.05424   5.15779
    R5        5.10872   0.00030   0.03923   0.01391   0.05322   5.16194
    R6        4.87670  -0.00005   0.00365   0.00501   0.00867   4.88537
    R7        1.78386  -0.00176  -0.00210   0.00044  -0.00163   1.78223
    R8        1.78367  -0.00169  -0.00171   0.00013  -0.00161   1.78206
    A1        1.85874   0.00028  -0.00273   0.00334   0.00052   1.85926
    A2        2.86819   0.00024   0.00072   0.00132   0.00205   2.87024
    A3        2.84696   0.00033   0.00379   0.00100   0.00467   2.85163
    A4        2.83449   0.00039   0.00579   0.00116   0.00680   2.84129
    A5        1.18915  -0.00015   0.00775  -0.00173   0.00593   1.19508
    A6        1.18799  -0.00011   0.00937  -0.00178   0.00744   1.19543
    A7        0.56069  -0.00064  -0.00527  -0.00112  -0.00639   0.55429
    A8        1.30813   0.00017   0.02725   0.00293   0.03029   1.33843
    A9        1.30971   0.00020   0.02828   0.00294   0.03128   1.34099
   A10        1.82826  -0.00022  -0.00069   0.00159   0.00053   1.82880
    D1        0.02226  -0.00005  -0.00092  -0.00022  -0.00115   0.02112
    D2       -1.29871  -0.00006  -0.01218  -0.00491  -0.01690  -1.31561
    D3        1.31086   0.00013   0.01460   0.00435   0.01879   1.32965
    D4       -2.21605   0.00012   0.00099  -0.00298  -0.00220  -2.21826
    D5        2.23233  -0.00016  -0.00405   0.00251  -0.00119   2.23114
    D6        2.76765   0.00016   0.01587   0.00410   0.01980   2.78745
    D7        1.45679   0.00003   0.00127  -0.00024   0.00101   1.45780
         Item               Value     Threshold  Converged?
 Maximum Force            0.001760     0.000450     NO 
 RMS     Force            0.000637     0.000300     NO 
 Maximum Displacement     0.035278     0.001800     NO 
 RMS     Displacement     0.014290     0.001200     NO 
 Predicted change in Energy=-1.322560D-06
 GradGradGradGradGradGradGradGradGradGradGradGradGradGradGradGradGradGrad

                          Input orientation:                          
 ---------------------------------------------------------------------
 Center     Atomic      Atomic             Coordinates (Angstroms)
 Number     Number       Type             X           Y           Z
 ---------------------------------------------------------------------
      1          8           0       -1.412049    0.000799   -0.060851
      2          1           0       -2.324769    0.001987    0.170376
      3          1           0       -0.929870   -0.013710    0.749787
      4          8           0        1.546586   -0.000421    0.007904
      5          1           0        1.185527   -0.739326   -0.453747
      6          1           0        1.187606    0.754650   -0.428332
 ---------------------------------------------------------------------
                    Distance matrix (angstroms):
                    1          2          3          4          5
     1  O    0.000000
     2  H    0.941555   0.000000
     3  H    0.943314   1.510532   0.000000
     4  O    2.959434   3.874764   2.585228   0.000000
     5  H    2.729387   3.641601   2.539669   0.943115   0.000000
     6  H    2.731582   3.641666   2.542056   0.943028   1.494194
                    6
     6  H    0.000000
 Stoichiometry    H4O2
 Framework group  C1[X(H4O2)]
 Deg. of freedom    12
 Full point group                 C1      NOp   1
 Largest Abelian subgroup         C1      NOp   1
 Largest concise Abelian subgroup C1      NOp   1
                         Standard orientation:                         
 ---------------------------------------------------------------------
 Center     Atomic      Atomic             Coordinates (Angstroms)
 Number     Number       Type             X           Y           Z
 ---------------------------------------------------------------------
      1          8           0       -1.419795   -0.000428   -0.085992
      2          1           0       -2.339295    0.004205    0.116551
      3          1           0       -0.963189   -0.002218    0.739447
      4          8           0        1.535246   -0.000061    0.075203
      5          1           0        1.188560   -0.746133   -0.385938
      6          1           0        1.190311    0.748058   -0.383751
 ---------------------------------------------------------------------
 Rotational constants (GHZ):    234.9106654      6.2941996      6.2864668
 Standard basis: 6-311++G(d,p) (5D, 7F)
 There are    72 symmetry adapted basis functions of A   symmetry.
 Integral buffers will be    262144 words long.
 Raffenetti 1 integral format.
 Two-electron integral symmetry is turned on.
    72 basis functions,   108 primitive gaussians,    74 cartesian basis functions
    10 alpha electrons       10 beta electrons
       nuclear repulsion energy        36.6484083034 Hartrees.
 NAtoms=    6 NActive=    6 NUniq=    6 SFac= 1.00D+00 NAtFMM=   50 NAOKFM=F Big=F
 One-electron integrals computed using PRISM.
 NBasis=    72 RedAO= T  NBF=    72
 NBsUse=    72 1.00D-06 NBFU=    72
 Initial guess read from the read-write file.
 B after Tr=     0.000000    0.000000    0.000000
         Rot=    1.000000    0.000000    0.000000    0.000000 Ang=   0.00 deg.
 Initial guess orbital symmetries:
       Occupied  (A) (A) (A) (A) (A) (A) (A) (A) (A) (A)
       Virtual   (A) (A) (A) (A) (A) (A) (A) (A) (A) (A) (A) (A)
                 (A) (A) (A) (A) (A) (A) (A) (A) (A) (A) (A) (A)
                 (A) (A) (A) (A) (A) (A) (A) (A) (A) (A) (A) (A)
                 (A) (A) (A) (A) (A) (A) (A) (A) (A) (A) (A) (A)
                 (A) (A) (A) (A) (A) (A) (A) (A) (A) (A) (A) (A)
                 (A) (A)
 Harris functional with IExCor=  205 diagonalized for initial guess.
 ExpMin= 3.60D-02 ExpMax= 8.59D+03 ExpMxC= 1.30D+03 IAcc=3 IRadAn=         0 AccDes= 0.00D+00
 HarFok:  IExCor=  205 AccDes= 0.00D+00 IRadAn=         0 IDoV= 1
 ScaDFX=  1.000000  1.000000  1.000000  1.000000
 FoFCou: FMM=F IPFlag=           0 FMFlag=      100000 FMFlg1=           0
         NFxFlg=           0 DoJE=T BraDBF=F KetDBF=T FulRan=T
         Omega=  0.000000  0.000000  1.000000  0.000000  0.000000 ICntrl=     500 IOpCl=  0
         NMat0=    1 NMatS0=    1 NMatT0=    0 NMatD0=    1 NMtDS0=    0 NMtDT0=    0
         I1Cent=           4 NGrid=           0.
 Petite list used in FoFCou.
 Requested convergence on RMS density matrix=1.00D-08 within 128 cycles.
 Requested convergence on MAX density matrix=1.00D-06.
 Requested convergence on             energy=1.00D-06.
 No special actions if energy rises.
 Keep R1 ints in memory in canonical form, NReq=4707187.
 SCF Done:  E(RHF) =  -152.111784941     A.U. after   12 cycles
             Convg  =    0.8149D-08             -V/T =  2.0001
 Calling FoFJK, ICntrl=      2127 FMM=F ISym2X=0 I1Cent= 0 IOpClX= 0 NMat=1 NMatS=1 NMatT=0.
 ***** Axes restored to original set *****
[...]
    A8        2.08683  -0.00005   0.00062  -0.00006   0.00055   2.08738
    A9        2.05348   0.00003  -0.00058   0.00143   0.00085   2.05434
   A10        1.86018   0.00005   0.00007  -0.00020  -0.00014   1.86004
    D1        0.28569   0.00000   0.01495   0.00706   0.02201   0.30769
    D2       -1.23901   0.00000  -0.00117   0.00854   0.00739  -1.23161
    D3        1.12526   0.00002   0.01966   0.00549   0.02516   1.15042
    D4       -1.28991  -0.00003   0.01118   0.00579   0.01697  -1.27294
    D5        1.15973   0.00004   0.01143   0.00733   0.01875   1.17848
    D6        1.58637   0.00003   0.01069   0.00699   0.01766   1.60403
    D7        0.46111   0.00002  -0.00897   0.00149  -0.00750   0.45361
         Item               Value     Threshold  Converged?
 Maximum Force            0.000068     0.000450     YES
 RMS     Force            0.000028     0.000300     YES
 Maximum Displacement     0.012629     0.001800     NO 
 RMS     Displacement     0.004059     0.001200     NO 
 Predicted change in Energy=-5.476353D-07
 GradGradGradGradGradGradGradGradGradGradGradGradGradGradGradGradGradGrad

                          Input orientation:                          
 ---------------------------------------------------------------------
 Center     Atomic      Atomic             Coordinates (Angstroms)
 Number     Number       Type             X           Y           Z
 ---------------------------------------------------------------------
      1          8           0       -1.884988    0.032178   -0.114748
      2          1           0       -2.192600   -0.037655    0.771287
      3          1           0       -0.941051    0.015397   -0.066843
      4          8           0        1.114430   -0.010231    0.010906
      5          1           0        1.583688   -0.752690   -0.329581
      6          1           0        1.573553    0.756981   -0.285885
 ---------------------------------------------------------------------
                    Distance matrix (angstroms):
                    1          2          3          4          5
     1  O    0.000000
     2  H    0.940510   0.000000
     3  H    0.945301   1.507199   0.000000
     4  O    3.002349   3.393432   2.057111   0.000000
     5  H    3.562848   3.997941   2.652036   0.942008   0.000000
     6  H    3.537815   3.991612   2.630810   0.942069   1.510337
                    6
     6  H    0.000000
 Stoichiometry    H4O2
 Framework group  C1[X(H4O2)]
 Deg. of freedom    12
 Full point group                 C1      NOp   1
 Largest Abelian subgroup         C1      NOp   1
 Largest concise Abelian subgroup C1      NOp   1
                         Standard orientation:                         
 ---------------------------------------------------------------------
 Center     Atomic      Atomic             Coordinates (Angstroms)
 Number     Number       Type             X           Y           Z
 ---------------------------------------------------------------------
      1          8           0       -1.576065    0.020632   -0.110115
      2          1           0       -1.902017   -0.147608    0.755917
      3          1           0       -0.633261    0.005900   -0.043048
      4          8           0        1.420217   -0.012440    0.077776
      5          1           0        1.904115   -0.709820   -0.330736
      6          1           0        1.877945    0.785993   -0.123428
 ---------------------------------------------------------------------
 Rotational constants (GHZ):    241.7311252      6.0019645      5.9855824
 Standard basis: 6-311++G(d,p) (5D, 7F)
 There are    72 symmetry adapted basis functions of A   symmetry.
 Integral buffers will be    262144 words long.
 Raffenetti 1 integral format.
 Two-electron integral symmetry is turned on.
    72 basis functions,   108 primitive gaussians,    74 cartesian basis functions
    10 alpha electrons       10 beta electrons
       nuclear repulsion energy        36.3050333815 Hartrees.
 NAtoms=    6 NActive=    6 NUniq=    6 SFac= 1.00D+00 NAtFMM=   50 NAOKFM=F Big=F
 One-electron integrals computed using PRISM.
 NBasis=    72 RedAO= T  NBF=    72
 NBsUse=    72 1.00D-06 NBFU=    72
 Initial guess read from the read-write file.
 B after Tr=     0.000000    0.000000    0.000000
         Rot=    1.000000    0.000000    0.000000    0.000000 Ang=   0.00 deg.
 Initial guess orbital symmetries:
       Occupied  (A) (A) (A) (A) (A) (A) (A) (A) (A) (A)
       Virtual   (A) (A) (A) (A) (A) (A) (A) (A) (A) (A) (A) (A)
                 (A) (A) (A) (A) (A) (A) (A) (A) (A) (A) (A) (A)
                 (A) (A) (A) (A) (A) (A) (A) (A) (A) (A) (A) (A)
                 (A) (A) (A) (A) (A) (A) (A) (A) (A) (A) (A) (A)
                 (A) (A) (A) (A) (A) (A) (A) (A) (A) (A) (A) (A)
                 (A) (A)
 Requested convergence on RMS density matrix=1.00D-08 within 128 cycles.
 Requested convergence on MAX density matrix=1.00D-06.
 Requested convergence on             energy=1.00D-06.
 No special actions if energy rises.
 Keep R1 ints in memory in canonical form, NReq=4707187.
 SCF Done:  E(RHF) =  -152.114507107     A.U. after    9 cycles
             Convg  =    0.6183D-08             -V/T =  2.0001
 Calling FoFJK, ICntrl=      2127 FMM=F ISym2X=0 I1Cent= 0 IOpClX= 0 NMat=1 NMatS=1 NMatT=0.
 ***** Axes restored to original set *****
 -------------------------------------------------------------------
 Center     Atomic                   Forces (Hartrees/Bohr)
 Number     Number              X              Y              Z
 -------------------------------------------------------------------
      1        8          -0.000300777    0.000018625   -0.000095216
      2        1           0.000052437    0.000025502    0.000014386
      3        1           0.000253645   -0.000100724    0.000092748
      4        8           0.000038215    0.000094024   -0.000068708
      5        1          -0.000059607   -0.000073051    0.000001548
      6        1           0.000016087    0.000035623    0.000055243
 -------------------------------------------------------------------
 Cartesian Forces:  Max     0.000300777 RMS     0.000109307

 GradGradGradGradGradGradGradGradGradGradGradGradGradGradGradGradGradGrad
 Berny optimization.
 Using GEDIIS/GDIIS optimizer.
 Internal  Forces:  Max     0.000157346 RMS     0.000049731
 Search for a local minimum.
 Step number  35 out of a maximum of   35
 All quantities printed in internal units (Hartrees-Bohrs-Radians)
 Mixed Optimization -- En-DIIS/RFO-DIIS
 Swaping is turned off.
 Update second derivatives using D2CorX and points   27   28   29   30   31
                                                     32   33   34   35
 DE= -9.05D-07 DEPred=-5.48D-07 R= 1.65D+00
 Trust test= 1.65D+00 RLast= 4.73D-02 DXMaxT set to 7.60D-01
 ITU=  0  0  1  1  1  1  1  1  1  1 -1  1  1  1  0  1  1  1 -1  1
 ITU=  1  0 -1 -1  1  1
     Eigenvalues ---    0.00026   0.00070   0.00202   0.00946   0.02245
     Eigenvalues ---    0.05632   0.06791   0.10669   0.50003   0.58826
     Eigenvalues ---    0.62881   0.91336
 En-DIIS/RFO-DIIS IScMMF=        0 using points:    35   34   33   32   31
 RFO step:  Lambda=-1.15681604D-07.
 DidBck=F Rises=F RFO-DIIS coefs:    3.56134   -4.39055    1.16000    0.42435    0.24486
 Iteration  1 RMS(Cart)=  0.00719609 RMS(Int)=  0.00027980
 Iteration  2 RMS(Cart)=  0.00007387 RMS(Int)=  0.00010559
 Iteration  3 RMS(Cart)=  0.00000001 RMS(Int)=  0.00010559
 Variable       Old X    -DE/DX   Delta X   Delta X   Delta X     New X
                                  (DIIS)     (GDIIS)  (Total)
    R1        1.77731  -0.00001  -0.00002   0.00004   0.00002   1.77732
    R2        1.78636   0.00016   0.00008   0.00002   0.00003   1.78639
    R3        5.67362   0.00005  -0.00044  -0.00021  -0.00064   5.67297
    R4        6.73281  -0.00001  -0.00191  -0.00137  -0.00324   6.72957
    R5        6.68550   0.00005   0.00428  -0.00017   0.00412   6.68962
    R6        3.88738  -0.00010  -0.00032  -0.00023  -0.00062   3.88676
    R7        1.78014   0.00003   0.00015  -0.00010   0.00008   1.78021
    R8        1.78025  -0.00001  -0.00022   0.00029   0.00008   1.78033
    A1        1.85203  -0.00003   0.00070  -0.00058   0.00034   1.85236
    A2        1.86113  -0.00002   0.00297  -0.00086   0.00206   1.86319
    A3        1.93786  -0.00002   0.00861   0.00018   0.00874   1.94660
    A4        1.96116  -0.00003  -0.00363  -0.00173  -0.00544   1.95572
    A5        0.23282   0.00001   0.00091   0.00011   0.00060   0.23342
    A6        0.24518   0.00001   0.00104  -0.00013   0.00079   0.24597
    A7        0.42863   0.00001  -0.00008   0.00017   0.00010   0.42873
    A8        2.08738  -0.00006  -0.00106  -0.00085  -0.00199   2.08539
    A9        2.05434   0.00001   0.00433  -0.00021   0.00412   2.05846
   A10        1.86004   0.00009  -0.00005   0.00055   0.00057   1.86062
    D1        0.30769   0.00000   0.02580   0.00515   0.03094   0.33864
    D2       -1.23161   0.00002   0.03442   0.00335   0.03779  -1.19382
    D3        1.15042   0.00000   0.02307   0.00487   0.02788   1.17830
    D4       -1.27294  -0.00004   0.02493   0.00459   0.02956  -1.24338
    D5        1.17848   0.00004   0.02946   0.00403   0.03351   1.21199
    D6        1.60403   0.00002   0.02882   0.00425   0.03304   1.63707
    D7        0.45361   0.00002   0.00575  -0.00062   0.00516   0.45877
         Item               Value     Threshold  Converged?
 Maximum Force            0.000157     0.000450     YES
 RMS     Force            0.000050     0.000300     YES
 Maximum Displacement     0.023217     0.001800     NO 
 RMS     Displacement     0.007200     0.001200     NO 
 Predicted change in Energy=-3.240471D-07
 Optimization stopped.
    -- Number of steps exceeded,  NStep=  35
    -- Flag reset to prevent archiving.
                           ----------------------------
                           ! Non-Optimized Parameters !
                           ! (Angstroms and Degrees)  !
 --------------------------                            --------------------------
 ! Name  Definition              Value          Derivative Info.                !
 --------------------------------------------------------------------------------
 ! R1    R(1,2)                  0.9405         -DE/DX =    0.0                 !
 ! R2    R(1,3)                  0.9453         -DE/DX =    0.0002              !
 ! R3    R(1,4)                  3.002          -DE/DX =    0.0001              !
 ! R4    R(1,5)                  3.5611         -DE/DX =    0.0                 !
 ! R5    R(1,6)                  3.54           -DE/DX =    0.0001              !
 ! R6    R(3,4)                  2.0568         -DE/DX =   -0.0001              !
 ! R7    R(4,5)                  0.942          -DE/DX =    0.0                 !
 ! R8    R(4,6)                  0.9421         -DE/DX =    0.0                 !
 ! A1    A(2,1,3)              106.1326         -DE/DX =    0.0                 !
 ! A2    A(2,1,4)              106.7532         -DE/DX =    0.0                 !
 ! A3    A(2,1,5)              111.5319         -DE/DX =    0.0                 !
 ! A4    A(2,1,6)              112.0543         -DE/DX =    0.0                 !
 ! A5    A(3,1,5)               13.3742         -DE/DX =    0.0                 !
 ! A6    A(3,1,6)               14.0932         -DE/DX =    0.0                 !
 ! A7    A(5,1,6)               24.5642         -DE/DX =    0.0                 !
 ! A8    A(3,4,5)              119.4838         -DE/DX =   -0.0001              !
 ! A9    A(3,4,6)              117.9409         -DE/DX =    0.0                 !
 ! A10   A(5,4,6)              106.6054         -DE/DX =    0.0001              !
 ! D1    D(2,1,4,3)             19.4025         -DE/DX =    0.0                 !
 ! D2    D(2,1,5,3)            -68.401          -DE/DX =    0.0                 !
 ! D3    D(2,1,6,3)             67.5118         -DE/DX =    0.0                 !
 ! D4    D(2,1,5,4)            -71.2403         -DE/DX =    0.0                 !
 ! D5    D(2,1,6,4)             69.4421         -DE/DX =    0.0                 !
 ! D6    D(2,1,6,5)             93.7973         -DE/DX =    0.0                 !
 ! D7    D(3,1,6,5)             26.2855         -DE/DX =    0.0                 !
 --------------------------------------------------------------------------------
 GradGradGradGradGradGradGradGradGradGradGradGradGradGradGradGradGradGrad

                          Input orientation:                          
 ---------------------------------------------------------------------
 Center     Atomic      Atomic             Coordinates (Angstroms)
 Number     Number       Type             X           Y           Z
 ---------------------------------------------------------------------
      1          8           0       -1.884988    0.032178   -0.114748
      2          1           0       -2.192600   -0.037655    0.771287
      3          1           0       -0.941051    0.015397   -0.066843
      4          8           0        1.114430   -0.010231    0.010906
      5          1           0        1.583688   -0.752690   -0.329581
      6          1           0        1.573553    0.756981   -0.285885
 ---------------------------------------------------------------------
                    Distance matrix (angstroms):
                    1          2          3          4          5
     1  O    0.000000
     2  H    0.940510   0.000000
     3  H    0.945301   1.507199   0.000000
     4  O    3.002349   3.393432   2.057111   0.000000
     5  H    3.562848   3.997941   2.652036   0.942008   0.000000
     6  H    3.537815   3.991612   2.630810   0.942069   1.510337
                    6
     6  H    0.000000
 Stoichiometry    H4O2
 Framework group  C1[X(H4O2)]
 Deg. of freedom    12
 Full point group                 C1      NOp   1
 Largest Abelian subgroup         C1      NOp   1
 Largest concise Abelian subgroup C1      NOp   1
                         Standard orientation:                         
 ---------------------------------------------------------------------
 Center     Atomic      Atomic             Coordinates (Angstroms)
 Number     Number       Type             X           Y           Z
 ---------------------------------------------------------------------
      1          8           0       -1.576065    0.020632   -0.110115
      2          1           0       -1.902017   -0.147608    0.755917
      3          1           0       -0.633261    0.005900   -0.043048
      4          8           0        1.420217   -0.012440    0.077776
      5          1           0        1.904115   -0.709820   -0.330736
      6          1           0        1.877945    0.785993   -0.123428
 ---------------------------------------------------------------------
 Rotational constants (GHZ):    241.7311252      6.0019645      5.9855824

 **********************************************************************

            Population analysis using the SCF density.

 **********************************************************************

 Orbital symmetries:
       Occupied  (A) (A) (A) (A) (A) (A) (A) (A) (A) (A)
       Virtual   (A) (A) (A) (A) (A) (A) (A) (A) (A) (A) (A) (A)
                 (A) (A) (A) (A) (A) (A) (A) (A) (A) (A) (A) (A)
                 (A) (A) (A) (A) (A) (A) (A) (A) (A) (A) (A) (A)
                 (A) (A) (A) (A) (A) (A) (A) (A) (A) (A) (A) (A)
                 (A) (A) (A) (A) (A) (A) (A) (A) (A) (A) (A) (A)
                 (A) (A)
 The electronic state is 1-A.
 Alpha  occ. eigenvalues --  -20.58760 -20.53198  -1.38754  -1.33241  -0.75730
 Alpha  occ. eigenvalues --   -0.70716  -0.61450  -0.55486  -0.53480  -0.48203
 Alpha virt. eigenvalues --    0.03579   0.06790   0.06920   0.11033   0.22269
 Alpha virt. eigenvalues --    0.23888   0.24082   0.25698   0.27317   0.29559
 Alpha virt. eigenvalues --    0.30238   0.31302   0.32823   0.35211   0.39323
 Alpha virt. eigenvalues --    0.47402   0.68535   0.72445   0.74578   0.81480
 Alpha virt. eigenvalues --    1.19935   1.21880   1.25184   1.27520   1.27815
 Alpha virt. eigenvalues --    1.31277   1.46279   1.48391   1.54131   1.54778
 Alpha virt. eigenvalues --    1.59133   1.69525   1.76258   1.83214   1.92749
 Alpha virt. eigenvalues --    1.99807   2.32603   2.41191   2.47029   2.58920
 Alpha virt. eigenvalues --    2.72272   2.78180   2.84654   2.97854   3.46497
 Alpha virt. eigenvalues --    3.52154   3.53444   3.59194   3.71354   3.76865
 Alpha virt. eigenvalues --    4.10008   4.15177   4.31966   4.38689   5.49971
 Alpha virt. eigenvalues --    5.52811   5.90794   5.97116   6.24347   6.34330
 Alpha virt. eigenvalues --   51.57001  51.63488
          Condensed to atoms (all electrons):
              1          2          3          4          5          6
     1  O    7.912176   0.323505   0.331303   0.021042  -0.001424  -0.001596
     2  H    0.323505   0.446652  -0.023856   0.000559   0.000087   0.000147
     3  H    0.331303  -0.023856   0.392738  -0.053275   0.003546   0.003866
     4  O    0.021042   0.000559  -0.053275   7.930252   0.334941   0.334620
     5  H   -0.001424   0.000087   0.003546   0.334941   0.406893  -0.021634
     6  H   -0.001596   0.000147   0.003866   0.334620  -0.021634   0.407630
 Mulliken atomic charges:
              1
     1  O   -0.585005
     2  H    0.252906
     3  H    0.345679
     4  O   -0.568139
     5  H    0.277592
     6  H    0.276967
 Sum of Mulliken atomic charges =   0.00000
 Mulliken charges with hydrogens summed into heavy atoms:
              1
     1  O    0.013581
     4  O   -0.013581
 Sum of Mulliken charges with hydrogens summed into heavy atoms =   0.00000
 Electronic spatial extent (au):  <R**2>=            201.3520
 Charge=              0.0000 electrons
 Dipole moment (field-independent basis, Debye):
    X=              3.3835    Y=             -0.1575    Z=              0.6237  Tot=              3.4441
 Quadrupole moment (field-independent basis, Debye-Ang):
   XX=             -9.9403   YY=            -11.6876   ZZ=            -13.0223
   XY=              1.0525   XZ=             -6.0503   YZ=              0.0803
 Traceless Quadrupole moment (field-independent basis, Debye-Ang):
   XX=              1.6098   YY=             -0.1375   ZZ=             -1.4722
   XY=              1.0525   XZ=             -6.0503   YZ=              0.0803
 Octapole moment (field-independent basis, Debye-Ang**2):
  XXX=             17.6702  YYY=              0.1319  ZZZ=              1.0968  XYY=              6.5537
  XXY=             -0.8958  XXZ=              2.8902  XZZ=             -1.5419  YZZ=             -0.2965
  YYZ=             -0.2827  XYZ=              1.3139
 Hexadecapole moment (field-independent basis, Debye-Ang**3):
 XXXX=           -168.5506 YYYY=            -12.4162 ZZZZ=            -13.4762 XXXY=              4.0871
 XXXZ=            -25.5730 YYYX=              1.1391 YYYZ=              0.2007 ZZZX=             -5.2192
 ZZZY=             -0.0701 XXYY=            -28.3250 XXZZ=            -32.6446 YYZZ=             -4.5557
 XXYZ=              0.3106 YYXZ=             -2.2626 ZZXY=              0.2218
 N-N= 3.630503338149D+01 E-N=-4.339618341591D+02  KE= 1.521030725933D+02


 IT WAS A GAME, A VERY INTERESTING GAME ONE COULD
 PLAY.  WHENEVER ONE SOLVED ONE OF THE LITTLE PROBLEMS,
 ONE COULD WRITE A PAPER ABOUT IT.  IT WAS VERY EASY IN
 THOSE DAYS FOR ANY SECOND-RATE PHYSICIST TO DO
 FIRST-RATE WORK.  THERE HAS NOT BEEN SUCH A GLORIOUS
 TIME SINCE.  IT IS VERY DIFFICULT NOW FOR A FIRST-RATE
 PHYSICIST TO DO SECOND-RATE WORK.
     P.A.M. DIRAC, ON THE EARLY DAYS OF QUANTUM MECHANICS
                   DIRECTIONS IN PHYSICS, 1978, P. 7
 Error termination request processed by link 9999.
 Error termination via Lnk1e in C:\G09W\l9999.exe at Mon Apr 10 11:46:18 2023.
 Job cpu time:  0 days  0 hours  0 minutes 55.0 seconds.
 File lengths (MBytes):  RWF=      5 Int=      0 D2E=      0 Chk=      1 Scr=      1
