 Entering Link 1 = C:\G09W\l1.exe PID=      3316.
  
 Copyright (c) 1988,1990,1992,1993,1995,1998,2003,2009,2010,
            Gaussian, Inc.  All Rights Reserved.
  
 This is part of the Gaussian(R) 09 program.  It is based on
 the Gaussian(R) 03 system (copyright 2003, Gaussian, Inc.),
 the Gaussian(R) 98 system (copyright 1998, Gaussian, Inc.),
 the Gaussian(R) 94 system (copyright 1995, Gaussian, Inc.),
 the Gaussian 92(TM) system (copyright 1992, Gaussian, Inc.),
 the Gaussian 90(TM) system (copyright 1990, Gaussian, Inc.),
 the Gaussian 88(TM) system (copyright 1988, Gaussian, Inc.),
 the Gaussian 86(TM) system (copyright 1986, Carnegie Mellon
 University), and the Gaussian 82(TM) system (copyright 1983,
 Carnegie Mellon University). Gaussian is a federally registered
 trademark of Gaussian, Inc.
  
 This software contains proprietary and confidential information,
 including trade secrets, belonging to Gaussian, Inc.
  
 This software is provided under written license and may be
 used, copied, transmitted, or stored only in accord with that
 written license.
  
 The following legend is applicable only to US Government
 contracts under FAR:
  
                    RESTRICTED RIGHTS LEGEND
  
 Use, reproduction and disclosure by the US Government is
 subject to restrictions as set forth in subparagraphs (a)
 and (c) of the Commercial Computer Software - Restricted
 Rights clause in FAR 52.227-19.
  
 Gaussian, Inc.
 340 Quinnipiac St., Bldg. 40, Wallingford CT 06492
  
  
 ---------------------------------------------------------------
 Warning -- This program may not be used in any manner that
 competes with the business of Gaussian, Inc. or will provide
 assistance to any competitor of Gaussian, Inc.  The licensee
 of this program is prohibited from giving any competitor of
 Gaussian, Inc. access to this program.  By using this program,
 the user acknowledges that Gaussian, Inc. is engaged in the
 business of creating and licensing software in the field of
 computational chemistry and represents and warrants to the
 licensee that it is not a competitor of Gaussian, Inc. and that
 it will not use this program in any manner prohibited above.
 ---------------------------------------------------------------
  

 Cite this work as:
 Gaussian 09, Revision B.01,
 M. J. Frisch, G. W. Trucks, H. B. Schlegel, G. E. Scuseria, 
 M. A. Robb, J. R. Cheeseman, G. Scalmani, V. Barone, B. Mennucci, 
 G. A. Petersson, H. Nakatsuji, M. Caricato, X. Li, H. P. Hratchian, 
 A. F. Izmaylov, J. Bloino, G. Zheng, J. L. Sonnenberg, M. Hada, 
 M. Ehara, K. Toyota, R. Fukuda, J. Hasegawa, M. Ishida, T. Nakajima, 
 Y. Honda, O. Kitao, H. Nakai, T. Vreven, J. A. Montgomery, Jr., 
 J. E. Peralta, F. Ogliaro, M. Bearpark, J. J. Heyd, E. Brothers, 
 K. N. Kudin, V. N. Staroverov, T. Keith, R. Kobayashi, J. Normand, 
 K. Raghavachari, A. Rendell, J. C. Burant, S. S. Iyengar, J. Tomasi, 
 M. Cossi, N. Rega, J. M. Millam, M. Klene, J. E. Knox, J. B. Cross, 
 V. Bakken, C. Adamo, J. Jaramillo, R. Gomperts, R. E. Stratmann, 
 O. Yazyev, A. J. Austin, R. Cammi, C. Pomelli, J. W. Ochterski, 
 R. L. Martin, K. Morokuma, V. G. Zakrzewski, G. A. Voth, 
 P. Salvador, J. J. Dannenberg, S. Dapprich, A. D. Daniels, 
 O. Farkas, J. B. Foresman, J. V. Ortiz, J. Cioslowski, 
 and D. J. Fox, Gaussian, Inc., Wallingford CT, 2010.
 
 ******************************************
 Gaussian 09:  IA32W-G09RevB.01 12-Aug-2010
                10-Apr-2023 
 ******************************************
 ---------
 # opt pm6
 ---------
 1/14=-1,18=20,19=15,26=1,38=1/1,3;
 2/9=110,12=2,17=6,18=5,40=1/2;
 3/5=2,16=1,25=1,41=3900000,71=1/1,2,3;
 4/35=1/1;
 5/5=2,35=1,38=5/2;
 6/7=2,8=2,9=2,10=2,28=1/1;
 7//1,2,3,16;
 1/14=-1,18=20,19=15/3(2);
 2/9=110/2;
 99//99;
 2/9=110/2;
 3/5=2,16=1,25=1,41=3900000,71=1,135=20/1,2,3;
 4/5=5,16=3,35=1/1;
 5/5=2,35=1,38=5/2;
 7//1,2,3,16;
 1/14=-1,18=20,19=15/3(-5);
 2/9=110/2;
 6/7=2,8=2,9=2,10=2,19=2,28=1/1;
 99/9=1/99;
 -----------
 water dimer
 -----------
 Symbolic Z-matrix:
 Charge =  0 Multiplicity = 1
 O                    -1.38335   0.00011  -0.1215 
 H                    -2.06279  -0.00062   0.53831 
 H                    -0.53599  -0.00039   0.34815 
 O                     1.32829  -0.00011   0.11595 
 H                     1.52006  -0.76618  -0.42176 
 H                     1.51916   0.76721  -0.42031 
 

 GradGradGradGradGradGradGradGradGradGradGradGradGradGradGradGradGradGrad
 Berny optimization.
 Initialization pass.
                           ----------------------------
                           !    Initial Parameters    !
                           ! (Angstroms and Degrees)  !
 --------------------------                            --------------------------
 ! Name  Definition              Value          Derivative Info.                !
 --------------------------------------------------------------------------------
 ! R1    R(1,2)                  0.9471         estimate D2E/DX2                !
 ! R2    R(1,3)                  0.9688         estimate D2E/DX2                !
 ! R3    R(3,4)                  1.8787         estimate D2E/DX2                !
 ! R4    R(4,5)                  0.9554         estimate D2E/DX2                !
 ! R5    R(4,6)                  0.9554         estimate D2E/DX2                !
 ! A1    A(2,1,3)              106.8429         estimate D2E/DX2                !
 ! A2    A(1,3,4)              143.9031         estimate D2E/DX2                !
 ! A3    A(3,4,5)              105.5827         estimate D2E/DX2                !
 ! A4    A(3,4,6)              105.53           estimate D2E/DX2                !
 ! A5    A(5,4,6)              106.7383         estimate D2E/DX2                !
 ! D1    D(2,1,3,4)           -180.0            estimate D2E/DX2                !
 ! D2    D(1,3,4,5)            -56.4166         estimate D2E/DX2                !
 ! D3    D(1,3,4,6)             56.4022         estimate D2E/DX2                !
 ! D4    D(3,4,5,6)            111.9705         estimate D2E/DX2                !
 --------------------------------------------------------------------------------
 Trust Radius=3.00D-01 FncErr=1.00D-07 GrdErr=1.00D-07
 Number of steps in this run=     24 maximum allowed number of steps=    100.
 GradGradGradGradGradGradGradGradGradGradGradGradGradGradGradGradGradGrad

                          Input orientation:                          
 ---------------------------------------------------------------------
 Center     Atomic      Atomic             Coordinates (Angstroms)
 Number     Number       Type             X           Y           Z
 ---------------------------------------------------------------------
      1          8           0       -1.383346    0.000108   -0.121495
      2          1           0       -2.062790   -0.000621    0.538312
      3          1           0       -0.535990   -0.000391    0.348146
      4          8           0        1.328291   -0.000110    0.115945
      5          1           0        1.520062   -0.766181   -0.421755
      6          1           0        1.519161    0.767213   -0.420305
 ---------------------------------------------------------------------
                    Distance matrix (angstroms):
                    1          2          3          4          5
     1  O    0.000000
     2  H    0.947096   0.000000
     3  H    0.968801   1.538597   0.000000
     4  O    2.722013   3.417283   1.878686   0.000000
     5  H    3.017803   3.787432   2.325195   0.955386   0.000000
     6  H    3.016999   3.786672   2.324517   0.955395   1.533395
                    6
     6  H    0.000000
 Stoichiometry    H4O2
 Framework group  C1[X(H4O2)]
 Deg. of freedom    12
 Full point group                 C1      NOp   1
 Largest Abelian subgroup         C1      NOp   1
 Largest concise Abelian subgroup C1      NOp   1
                         Standard orientation:                         
 ---------------------------------------------------------------------
 Center     Atomic      Atomic             Coordinates (Angstroms)
 Number     Number       Type             X           Y           Z
 ---------------------------------------------------------------------
      1          8           0       -1.383346    0.000108   -0.121495
      2          1           0       -2.062790   -0.000621    0.538312
      3          1           0       -0.535990   -0.000391    0.348146
      4          8           0        1.328291   -0.000110    0.115945
      5          1           0        1.520062   -0.766181   -0.421755
      6          1           0        1.519161    0.767213   -0.420305
 ---------------------------------------------------------------------
 Rotational constants (GHZ):    218.7834001      7.2948219      7.2885361
 Standard basis: VSTO-6G (5D, 7F)
 There are    12 symmetry adapted basis functions of A   symmetry.
 Integral buffers will be    262144 words long.
 Regular integral format.
 Two-electron integral symmetry is turned off.
    12 basis functions,    72 primitive gaussians,    12 cartesian basis functions
     8 alpha electrons        8 beta electrons
       nuclear repulsion energy        44.8006908805 Hartrees.
 Do NDO integrals.
 One-electron integrals computed using PRISM.
 NBasis=    12 RedAO= F  NBF=    12
 NBsUse=    12 1.00D-04 NBFU=    12
 Simple Huckel Guess.
 Initial guess orbital symmetries:
       Occupied  (A) (A) (A) (A) (A) (A) (A) (A)
       Virtual   (A) (A) (A) (A)
 The electronic state of the initial guess is 1-A.
 Requested convergence on RMS density matrix=1.00D-08 within 128 cycles.
 Requested convergence on MAX density matrix=1.00D-06.
 Requested convergence on             energy=1.00D-06.
 No special actions if energy rises.
 Overlap will be assumed to be unity.
 Keep J ints in memory in canonical form, NReq=875096.
 SCF Done:  E(RPM6) = -0.179108177817     A.U. after   12 cycles
             Convg  =    0.1715D-08             -V/T =  0.9763

 **********************************************************************

            Population analysis using the SCF density.

 **********************************************************************

 Orbital symmetries:
       Occupied  (A) (A) (A) (A) (A) (A) (A) (A)
       Virtual   (A) (A) (A) (A)
 The electronic state is 1-A.
 Alpha  occ. eigenvalues --   -1.13223  -1.08942  -0.70769  -0.67947  -0.54018
 Alpha  occ. eigenvalues --   -0.50707  -0.45048  -0.42310
 Alpha virt. eigenvalues --    0.12987   0.17351   0.20719   0.24019
          Condensed to atoms (all electrons):
              1          2          3          4          5          6
     1  O    6.653155   0.000000   0.000000   0.000000   0.000000   0.000000
     2  H    0.000000   0.692785   0.000000   0.000000   0.000000   0.000000
     3  H    0.000000   0.000000   0.670543   0.000000   0.000000   0.000000
     4  O    0.000000   0.000000   0.000000   6.621208   0.000000   0.000000
     5  H    0.000000   0.000000   0.000000   0.000000   0.681155   0.000000
     6  H    0.000000   0.000000   0.000000   0.000000   0.000000   0.681154
 Mulliken atomic charges:
              1
     1  O   -0.653155
     2  H    0.307215
     3  H    0.329457
     4  O   -0.621208
     5  H    0.318845
     6  H    0.318846
 Sum of Mulliken atomic charges =   0.00000
 Mulliken charges with hydrogens summed into heavy atoms:
              1
     1  O   -0.016483
     4  O    0.016483
 Sum of Mulliken charges with hydrogens summed into heavy atoms =   0.00000
 Charge=              0.0000 electrons
 Dipole moment (field-independent basis, Debye):
    X=              1.2987    Y=              0.0000    Z=              0.1073  Tot=              1.3031
 N-N= 4.480069088055D+01 E-N=-7.135111083996D+01  KE=-7.549181650810D+00
 Calling FoFJK, ICntrl=      2127 FMM=F ISym2X=0 I1Cent= 0 IOpClX= 0 NMat=1 NMatS=1 NMatT=0.
 ***** Axes restored to original set *****
 -------------------------------------------------------------------
 Center     Atomic                   Forces (Hartrees/Bohr)
 Number     Number              X              Y              Z
 -------------------------------------------------------------------
      1        8          -0.000202626    0.000001410    0.000414077
      2        1          -0.000193536    0.000000027   -0.000285411
      3        1           0.001030946   -0.000003096   -0.000534752
      4        8           0.000390611    0.000004095    0.000853415
      5        1          -0.000513976   -0.000343481   -0.000224092
      6        1          -0.000511419    0.000341045   -0.000223237
 -------------------------------------------------------------------
 Cartesian Forces:  Max     0.001030946 RMS     0.000435968

 GradGradGradGradGradGradGradGradGradGradGradGradGradGradGradGradGradGrad
 Berny optimization.
 Internal  Forces:  Max     0.000781729 RMS     0.000405265
 Search for a local minimum.
 Step number   1 out of a maximum of   24
 All quantities printed in internal units (Hartrees-Bohrs-Radians)
 Mixed Optimization -- En-DIIS/RFO-DIIS
 Second derivative matrix not updated -- first step.
 The second derivative matrix:
                          R1        R2        R3        R4        R5
           R1           0.58344
           R2           0.00000   0.53623
           R3           0.00000   0.00000   0.05301
           R4           0.00000   0.00000   0.00000   0.56478
           R5           0.00000   0.00000   0.00000   0.00000   0.56476
           A1           0.00000   0.00000   0.00000   0.00000   0.00000
           A2           0.00000   0.00000   0.00000   0.00000   0.00000
           A3           0.00000   0.00000   0.00000   0.00000   0.00000
           A4           0.00000   0.00000   0.00000   0.00000   0.00000
           A5           0.00000   0.00000   0.00000   0.00000   0.00000
           D1           0.00000   0.00000   0.00000   0.00000   0.00000
           D2           0.00000   0.00000   0.00000   0.00000   0.00000
           D3           0.00000   0.00000   0.00000   0.00000   0.00000
           D4           0.00000   0.00000   0.00000   0.00000   0.00000
                          A1        A2        A3        A4        A5
           A1           0.16000
           A2           0.00000   0.25000
           A3           0.00000   0.00000   0.16000
           A4           0.00000   0.00000   0.00000   0.16000
           A5           0.00000   0.00000   0.00000   0.00000   0.16000
           D1           0.00000   0.00000   0.00000   0.00000   0.00000
           D2           0.00000   0.00000   0.00000   0.00000   0.00000
           D3           0.00000   0.00000   0.00000   0.00000   0.00000
           D4           0.00000   0.00000   0.00000   0.00000   0.00000
                          D1        D2        D3        D4
           D1           0.01441
           D2           0.00000   0.00230
           D3           0.00000   0.00000   0.00230
           D4           0.00000   0.00000   0.00000   0.01619
 ITU=  0
     Eigenvalues ---    0.00230   0.01441   0.05301   0.05965   0.12280
     Eigenvalues ---    0.16000   0.16000   0.25000   0.53623   0.56476
     Eigenvalues ---    0.56478   0.58344
 RFO step:  Lambda=-2.46617681D-05 EMin= 2.30000000D-03
 Linear search not attempted -- first point.
 Iteration  1 RMS(Cart)=  0.00667868 RMS(Int)=  0.00002086
 Iteration  2 RMS(Cart)=  0.00001489 RMS(Int)=  0.00001067
 Iteration  3 RMS(Cart)=  0.00000000 RMS(Int)=  0.00001067
 Variable       Old X    -DE/DX   Delta X   Delta X   Delta X     New X
                                 (Linear)    (Quad)   (Total)
    R1        1.78975  -0.00006   0.00000  -0.00010  -0.00010   1.78965
    R2        1.83077   0.00028   0.00000   0.00053   0.00053   1.83130
    R3        3.55020  -0.00068   0.00000  -0.01282  -0.01282   3.53738
    R4        1.80542   0.00030   0.00000   0.00053   0.00053   1.80595
    R5        1.80544   0.00030   0.00000   0.00053   0.00053   1.80596
    A1        1.86476   0.00061   0.00000   0.00380   0.00380   1.86856
    A2        2.51158  -0.00005   0.00000  -0.00020  -0.00020   2.51138
    A3        1.84277  -0.00078   0.00000  -0.00638  -0.00639   1.83637
    A4        1.84185  -0.00035   0.00000  -0.00570  -0.00571   1.83613
    A5        1.86294   0.00027   0.00000  -0.00015  -0.00017   1.86276
    D1       -3.14159   0.00000   0.00000  -0.00003  -0.00003   3.14156
    D2       -0.98466   0.00009   0.00000   0.00218   0.00216  -0.98249
    D3        0.98440  -0.00009   0.00000  -0.00305  -0.00303   0.98138
    D4        1.95425  -0.00062   0.00000  -0.00927  -0.00926   1.94499
         Item               Value     Threshold  Converged?
 Maximum Force            0.000782     0.000450     NO 
 RMS     Force            0.000405     0.000300     NO 
 Maximum Displacement     0.012984     0.001800     NO 
 RMS     Displacement     0.006687     0.001200     NO 
 Predicted change in Energy=-1.230761D-05
 GradGradGradGradGradGradGradGradGradGradGradGradGradGradGradGradGradGrad

                          Input orientation:                          
 ---------------------------------------------------------------------
 Center     Atomic      Atomic             Coordinates (Angstroms)
 Number     Number       Type             X           Y           Z
 ---------------------------------------------------------------------
      1          8           0       -1.377659    0.000204   -0.121401
      2          1           0       -2.059927   -0.000792    0.535406
      3          1           0       -0.530317   -0.000421    0.348843
      4          8           0        1.327310   -0.000002    0.118132
      5          1           0        1.513191   -0.766357   -0.421725
      6          1           0        1.512790    0.767386   -0.420407
 ---------------------------------------------------------------------
                    Distance matrix (angstroms):
                    1          2          3          4          5
     1  O    0.000000
     2  H    0.947041   0.000000
     3  H    0.969081   1.540946   0.000000
     4  O    2.715555   3.412843   1.871899   0.000000
     5  H    3.005799   3.777482   2.314381   0.955665   0.000000
     6  H    3.005440   3.777298   2.314208   0.955674   1.533744
                    6
     6  H    0.000000
 Stoichiometry    H4O2
 Framework group  C1[X(H4O2)]
 Deg. of freedom    12
 Full point group                 C1      NOp   1
 Largest Abelian subgroup         C1      NOp   1
 Largest concise Abelian subgroup C1      NOp   1
                         Standard orientation:                         
 ---------------------------------------------------------------------
 Center     Atomic      Atomic             Coordinates (Angstroms)
 Number     Number       Type             X           Y           Z
 ---------------------------------------------------------------------
      1          8           0       -1.379405    0.000293   -0.121081
      2          1           0       -2.061140   -0.001391    0.536279
      3          1           0       -0.531682   -0.000853    0.348475
      4          8           0        1.325758   -0.000227    0.116258
      5          1           0        1.511184   -0.766009   -0.424567
      6          1           0        1.510817    0.767732   -0.421610
 ---------------------------------------------------------------------
 Rotational constants (GHZ):    218.6229018      7.3312670      7.3249831
 Standard basis: VSTO-6G (5D, 7F)
 There are    12 symmetry adapted basis functions of A   symmetry.
 Integral buffers will be    262144 words long.
 Regular integral format.
 Two-electron integral symmetry is turned off.
    12 basis functions,    72 primitive gaussians,    12 cartesian basis functions
     8 alpha electrons        8 beta electrons
       nuclear repulsion energy        44.8255215337 Hartrees.
 Do NDO integrals.
 One-electron integrals computed using PRISM.
 NBasis=    12 RedAO= F  NBF=    12
 NBsUse=    12 1.00D-04 NBFU=    12
 Initial guess read from the read-write file.
 B after Tr=     0.000000    0.000000    0.000000
         Rot=    1.000000    0.000000    0.000000    0.000000 Ang=   0.00 deg.
 Initial guess orbital symmetries:
       Occupied  (A) (A) (A) (A) (A) (A) (A) (A)
       Virtual   (A) (A) (A) (A)
 Requested convergence on RMS density matrix=1.00D-08 within 128 cycles.
 Requested convergence on MAX density matrix=1.00D-06.
 Requested convergence on             energy=1.00D-06.
 No special actions if energy rises.
 Overlap will be assumed to be unity.
 Keep J ints in memory in canonical form, NReq=875096.
 SCF Done:  E(RPM6) = -0.179131200953     A.U. after    9 cycles
             Convg  =    0.2334D-08             -V/T =  0.9763
 Calling FoFJK, ICntrl=      2127 FMM=F ISym2X=0 I1Cent= 0 IOpClX= 0 NMat=1 NMatS=1 NMatT=0.
 ***** Axes restored to original set *****
 -------------------------------------------------------------------
 Center     Atomic                   Forces (Hartrees/Bohr)
 Number     Number              X              Y              Z
 -------------------------------------------------------------------
      1        8          -0.000229854   -0.000000898    0.000174664
      2        1           0.000149517    0.000000666   -0.000231081
      3        1           0.000655966    0.000000874   -0.000308062
      4        8           0.000416944    0.000000311    0.000787529
      5        1          -0.000495771   -0.000281016   -0.000212470
      6        1          -0.000496801    0.000280062   -0.000210580
 -------------------------------------------------------------------
 Cartesian Forces:  Max     0.000787529 RMS     0.000351016

 GradGradGradGradGradGradGradGradGradGradGradGradGradGradGradGradGradGrad
 Berny optimization.
 Using GEDIIS/GDIIS optimizer.
 Internal  Forces:  Max     0.000745741 RMS     0.000349268
 Search for a local minimum.
 Step number   2 out of a maximum of   24
 All quantities printed in internal units (Hartrees-Bohrs-Radians)
 Mixed Optimization -- En-DIIS/RFO-DIIS
 Swaping is turned off.
 Update second derivatives using D2CorX and points    1    2
 DE= -2.30D-05 DEPred=-1.23D-05 R= 1.87D+00
 SS=  1.41D+00  RLast= 1.88D-02 DXNew= 5.0454D-01 5.6360D-02
 Trust test= 1.87D+00 RLast= 1.88D-02 DXMaxT set to 3.00D-01
 The second derivative matrix:
                          R1        R2        R3        R4        R5
           R1           0.59654
           R2           0.01256   0.54360
           R3          -0.00572   0.00417   0.03554
           R4           0.00387  -0.00061   0.00725   0.56192
           R5           0.00390  -0.00057   0.00720  -0.00283   0.56195
           A1           0.03301   0.02129   0.00703   0.00015   0.00026
           A2           0.00504   0.00521  -0.00297   0.00183   0.00184
           A3          -0.00478   0.00972  -0.02746   0.01182   0.01176
           A4          -0.00330   0.00955  -0.02483   0.01079   0.01073
           A5           0.00290   0.00298  -0.00167   0.00104   0.00104
           D1          -0.00007  -0.00005   0.00001  -0.00001  -0.00001
           D2          -0.00066  -0.00066   0.00034  -0.00022  -0.00022
           D3           0.00048   0.00053  -0.00035   0.00020   0.00020
           D4          -0.00160   0.00062  -0.00375   0.00152   0.00151
                          A1        A2        A3        A4        A5
           A1           0.22016
           A2           0.01354   0.25191
           A3           0.01972  -0.00297   0.11802
           A4           0.01991  -0.00228  -0.03767   0.12626
           A5           0.00774   0.00110  -0.00166  -0.00126   0.16063
           D1          -0.00014  -0.00003  -0.00001  -0.00001  -0.00002
           D2          -0.00172  -0.00025   0.00032   0.00024  -0.00014
           D3           0.00136   0.00018  -0.00037  -0.00030   0.00010
           D4           0.00075  -0.00079  -0.00600  -0.00545  -0.00044
                          D1        D2        D3        D4
           D1           0.01441
           D2           0.00000   0.00233
           D3           0.00000  -0.00002   0.00232
           D4           0.00000   0.00009  -0.00009   0.01539
 ITU=  1  0
     Eigenvalues ---    0.00230   0.00599   0.01441   0.05685   0.11578
     Eigenvalues ---    0.14790   0.21476   0.25581   0.54156   0.55947
     Eigenvalues ---    0.56477   0.60375
 En-DIIS/RFO-DIIS IScMMF=        0 using points:     2    1
 RFO step:  Lambda=-1.76387377D-05.
 DidBck=F Rises=F RFO-DIIS coefs:    7.53726   -6.53726
 Iteration  1 RMS(Cart)=  0.06992295 RMS(Int)=  0.00223293
 Iteration  2 RMS(Cart)=  0.00148774 RMS(Int)=  0.00125612
 Iteration  3 RMS(Cart)=  0.00000277 RMS(Int)=  0.00125611
 Iteration  4 RMS(Cart)=  0.00000000 RMS(Int)=  0.00125611
 Variable       Old X    -DE/DX   Delta X   Delta X   Delta X     New X
                                  (DIIS)     (GDIIS)  (Total)
    R1        1.78965  -0.00027  -0.00067  -0.00312  -0.00379   1.78586
    R2        1.83130   0.00010   0.00346  -0.00040   0.00307   1.83436
    R3        3.53738  -0.00062  -0.08384  -0.04473  -0.12856   3.40881
    R4        1.80595   0.00025   0.00345   0.00156   0.00501   1.81096
    R5        1.80596   0.00025   0.00344   0.00154   0.00498   1.81094
    A1        1.86856   0.00011   0.02483  -0.00740   0.01743   1.88599
    A2        2.51138  -0.00013  -0.00131  -0.00329  -0.00460   2.50678
    A3        1.83637  -0.00075  -0.04179  -0.02495  -0.06775   1.76863
    A4        1.83613  -0.00033  -0.03734  -0.02248  -0.06151   1.77463
    A5        1.86276   0.00022  -0.00113  -0.00303  -0.00683   1.85594
    D1        3.14156   0.00000  -0.00022   0.00040   0.00018  -3.14144
    D2       -0.98249   0.00010   0.01414   0.01392   0.02581  -0.95668
    D3        0.98138  -0.00010  -0.01980  -0.00876  -0.02631   0.95507
    D4        1.94499  -0.00060  -0.06055  -0.03718  -0.09676   1.84824
         Item               Value     Threshold  Converged?
 Maximum Force            0.000746     0.000450     NO 
 RMS     Force            0.000349     0.000300     NO 
 Maximum Displacement     0.139439     0.001800     NO 
 RMS     Displacement     0.070739     0.001200     NO 
 Predicted change in Energy=-1.057051D-04
 GradGradGradGradGradGradGradGradGradGradGradGradGradGradGradGradGradGrad

                          Input orientation:                          
 ---------------------------------------------------------------------
 Center     Atomic      Atomic             Coordinates (Angstroms)
 Number     Number       Type             X           Y           Z
 ---------------------------------------------------------------------
      1          8           0       -1.319613   -0.000323   -0.126504
      2          1           0       -2.018333   -0.001427    0.509799
      3          1           0       -0.475740   -0.000481    0.353229
      4          8           0        1.315607    0.000813    0.141078
      5          1           0        1.439403   -0.766316   -0.419778
      6          1           0        1.444064    0.767751   -0.418976
 ---------------------------------------------------------------------
                    Distance matrix (angstroms):
                    1          2          3          4          5
     1  O    0.000000
     2  H    0.945035   0.000000
     3  H    0.970703   1.550518   0.000000
     4  O    2.648770   3.354268   1.803866   0.000000
     5  H    2.878355   3.661299   2.202684   0.958317   0.000000
     6  H    2.883295   3.666395   2.207290   0.958308   1.534074
                    6
     6  H    0.000000
 Stoichiometry    H4O2
 Framework group  C1[X(H4O2)]
 Deg. of freedom    12
 Full point group                 C1      NOp   1
 Largest Abelian subgroup         C1      NOp   1
 Largest concise Abelian subgroup C1      NOp   1
                         Standard orientation:                         
 ---------------------------------------------------------------------
 Center     Atomic      Atomic             Coordinates (Angstroms)
 Number     Number       Type             X           Y           Z
 ---------------------------------------------------------------------
      1          8           0        1.338950   -0.000223   -0.117906
      2          1           0        2.030186    0.000087    0.526519
      3          1           0        0.489528    0.000154    0.351931
      4          8           0       -1.299218    0.000054    0.118858
      5          1           0       -1.415999    0.767588   -0.442946
      6          1           0       -1.421573   -0.766476   -0.443118
 ---------------------------------------------------------------------
 Rotational constants (GHZ):    216.2882874      7.7307467      7.7265896
 Standard basis: VSTO-6G (5D, 7F)
 There are    12 symmetry adapted basis functions of A   symmetry.
 Integral buffers will be    262144 words long.
 Regular integral format.
 Two-electron integral symmetry is turned off.
    12 basis functions,    72 primitive gaussians,    12 cartesian basis functions
     8 alpha electrons        8 beta electrons
       nuclear repulsion energy        45.1025815155 Hartrees.
 Do NDO integrals.
 One-electron integrals computed using PRISM.
 NBasis=    12 RedAO= F  NBF=    12
 NBsUse=    12 1.00D-04 NBFU=    12
 Initial guess read from the read-write file.
 B after Tr=     0.000000    0.000000    0.000000
         Rot=    1.000000    0.000000    0.000000    0.000000 Ang=   0.00 deg.
 Initial guess orbital symmetries:
       Occupied  (A) (A) (A) (A) (A) (A) (A) (A)
       Virtual   (A) (A) (A) (A)
 Requested convergence on RMS density matrix=1.00D-08 within 128 cycles.
 Requested convergence on MAX density matrix=1.00D-06.
 Requested convergence on             energy=1.00D-06.
 No special actions if energy rises.
 Overlap will be assumed to be unity.
 Keep J ints in memory in canonical form, NReq=875096.
 SCF Done:  E(RPM6) = -0.179244164138     A.U. after   14 cycles
             Convg  =    0.1490D-08             -V/T =  0.9763
 Calling FoFJK, ICntrl=      2127 FMM=F ISym2X=0 I1Cent= 0 IOpClX= 0 NMat=1 NMatS=1 NMatT=0.
 ***** Axes restored to original set *****
 -------------------------------------------------------------------
 Center     Atomic                   Forces (Hartrees/Bohr)
 Number     Number              X              Y              Z
 -------------------------------------------------------------------
      1        8          -0.000413598   -0.000015289   -0.001605549
      2        1           0.000965289    0.000003054    0.000317429
      3        1          -0.000953328    0.000030755    0.001460654
      4        8           0.000905937   -0.000019150   -0.000099467
      5        1          -0.000237005   -0.000270091   -0.000044599
      6        1          -0.000267295    0.000270722   -0.000028467
 -------------------------------------------------------------------
 Cartesian Forces:  Max     0.001605549 RMS     0.000663851

 GradGradGradGradGradGradGradGradGradGradGradGradGradGradGradGradGradGrad
 Berny optimization.
 Using GEDIIS/GDIIS optimizer.
 Internal  Forces:  Max     0.001579829 RMS     0.000553587
 Search for a local minimum.
 Step number   3 out of a maximum of   24
 All quantities printed in internal units (Hartrees-Bohrs-Radians)
 Mixed Optimization -- En-DIIS/RFO-DIIS
 Swaping is turned off.
 Update second derivatives using D2CorX and points    1    2    3
 DE= -1.13D-04 DEPred=-1.06D-04 R= 1.07D+00
 SS=  1.41D+00  RLast= 1.90D-01 DXNew= 5.0454D-01 5.6974D-01
 Trust test= 1.07D+00 RLast= 1.90D-01 DXMaxT set to 5.05D-01
 The second derivative matrix:
                          R1        R2        R3        R4        R5
           R1           0.59730
           R2           0.01279   0.54343
           R3          -0.00784   0.00430   0.03892
           R4           0.00406  -0.00082   0.00757   0.56168
           R5           0.00411  -0.00077   0.00746  -0.00307   0.56171
           A1           0.03706   0.02167  -0.00141   0.00022   0.00044
           A2           0.00674   0.00562  -0.00729   0.00213   0.00219
           A3          -0.00570   0.01051  -0.02832   0.01276   0.01268
           A4          -0.00369   0.01039  -0.02680   0.01174   0.01168
           A5           0.00289   0.00342  -0.00306   0.00153   0.00153
           D1          -0.00008  -0.00006   0.00003  -0.00001  -0.00001
           D2          -0.00044  -0.00055  -0.00038  -0.00012  -0.00011
           D3           0.00023   0.00041   0.00047   0.00010   0.00009
           D4          -0.00225   0.00071  -0.00286   0.00167   0.00164
                          A1        A2        A3        A4        A5
           A1           0.23849
           A2           0.02208   0.25561
           A3           0.01859  -0.00453   0.11438
           A4           0.02120  -0.00271  -0.04145   0.12266
           A5           0.00925   0.00128  -0.00363  -0.00303   0.15981
           D1          -0.00019  -0.00005   0.00000  -0.00001  -0.00002
           D2          -0.00044   0.00024  -0.00013  -0.00004  -0.00023
           D3          -0.00010  -0.00039   0.00010  -0.00002   0.00018
           D4          -0.00168  -0.00209  -0.00647  -0.00624  -0.00096
                          D1        D2        D3        D4
           D1           0.01441
           D2           0.00000   0.00238
           D3           0.00000  -0.00009   0.00239
           D4           0.00001  -0.00014   0.00017   0.01561
 ITU=  1  1  0
     Eigenvalues ---    0.00230   0.00601   0.01441   0.06071   0.11285
     Eigenvalues ---    0.14674   0.22293   0.26822   0.54135   0.55918
     Eigenvalues ---    0.56477   0.60581
 En-DIIS/RFO-DIIS IScMMF=        0 using points:     3    2    1
 RFO step:  Lambda=-8.62497949D-06.
 DidBck=F Rises=F RFO-DIIS coefs:    1.20291   -2.93315    2.73024
 Iteration  1 RMS(Cart)=  0.00270977 RMS(Int)=  0.00039956
 Iteration  2 RMS(Cart)=  0.00000933 RMS(Int)=  0.00039937
 Iteration  3 RMS(Cart)=  0.00000000 RMS(Int)=  0.00039937
 Variable       Old X    -DE/DX   Delta X   Delta X   Delta X     New X
                                  (DIIS)     (GDIIS)  (Total)
    R1        1.78586  -0.00050  -0.00049  -0.00002  -0.00051   1.78534
    R2        1.83436   0.00016  -0.00082   0.00158   0.00076   1.83512
    R3        3.40881   0.00042   0.00893   0.00079   0.00972   3.41853
    R4        1.81096   0.00021  -0.00043   0.00092   0.00049   1.81145
    R5        1.81094   0.00020  -0.00043   0.00089   0.00046   1.81140
    A1        1.88599  -0.00158  -0.00683  -0.00124  -0.00807   1.87791
    A2        2.50678  -0.00097  -0.00039  -0.00380  -0.00419   2.50260
    A3        1.76863  -0.00036   0.00371  -0.00660  -0.00258   1.76605
    A4        1.77463  -0.00021   0.00311  -0.00632  -0.00269   1.77194
    A5        1.85594   0.00023  -0.00091   0.00222   0.00216   1.85809
    D1       -3.14144   0.00001   0.00013   0.00019   0.00032  -3.14112
    D2       -0.95668  -0.00003  -0.00067   0.00360   0.00366  -0.95302
    D3        0.95507   0.00005   0.00293   0.00223   0.00444   0.95951
    D4        1.84824  -0.00029   0.00565  -0.00858  -0.00322   1.84502
         Item               Value     Threshold  Converged?
 Maximum Force            0.001580     0.000450     NO 
 RMS     Force            0.000554     0.000300     NO 
 Maximum Displacement     0.004920     0.001800     NO 
 RMS     Displacement     0.002711     0.001200     NO 
 Predicted change in Energy=-8.155745D-06
 GradGradGradGradGradGradGradGradGradGradGradGradGradGradGradGradGradGrad

                          Input orientation:                          
 ---------------------------------------------------------------------
 Center     Atomic      Atomic             Coordinates (Angstroms)
 Number     Number       Type             X           Y           Z
 ---------------------------------------------------------------------
      1          8           0       -1.320749   -0.001807   -0.128580
      2          1           0       -2.016525   -0.000508    0.510540
      3          1           0       -0.478344   -0.000143    0.354527
      4          8           0        1.318022    0.000712    0.141022
      5          1           0        1.438975   -0.766972   -0.420139
      6          1           0        1.444008    0.768736   -0.418522
 ---------------------------------------------------------------------
                    Distance matrix (angstroms):
                    1          2          3          4          5
     1  O    0.000000
     2  H    0.944764   0.000000
     3  H    0.971104   1.546073   0.000000
     4  O    2.652509   3.354959   1.809009   0.000000
     5  H    2.878639   3.659796   2.205504   0.958577   0.000000
     6  H    2.884733   3.664720   2.210026   0.958553   1.535717
                    6
     6  H    0.000000
 Stoichiometry    H4O2
 Framework group  C1[X(H4O2)]
 Deg. of freedom    12
 Full point group                 C1      NOp   1
 Largest Abelian subgroup         C1      NOp   1
 Largest concise Abelian subgroup C1      NOp   1
                         Standard orientation:                         
 ---------------------------------------------------------------------
 Center     Atomic      Atomic             Coordinates (Angstroms)
 Number     Number       Type             X           Y           Z
 ---------------------------------------------------------------------
      1          8           0        1.340627    0.001996   -0.118330
      2          1           0        2.028463   -0.010260    0.529212
      3          1           0        0.492324   -0.006348    0.354275
      4          8           0       -1.301271   -0.001710    0.118668
      5          1           0       -1.414543    0.774924   -0.431677
      6          1           0       -1.421093   -0.760609   -0.454515
 ---------------------------------------------------------------------
 Rotational constants (GHZ):    215.5370499      7.7126686      7.7088476
 Standard basis: VSTO-6G (5D, 7F)
 There are    12 symmetry adapted basis functions of A   symmetry.
 Integral buffers will be    262144 words long.
 Regular integral format.
 Two-electron integral symmetry is turned off.
    12 basis functions,    72 primitive gaussians,    12 cartesian basis functions
     8 alpha electrons        8 beta electrons
       nuclear repulsion energy        45.0901871492 Hartrees.
 Do NDO integrals.
 One-electron integrals computed using PRISM.
 NBasis=    12 RedAO= F  NBF=    12
 NBsUse=    12 1.00D-04 NBFU=    12
 Initial guess read from the read-write file.
 B after Tr=     0.000000    0.000000    0.000000
         Rot=    1.000000    0.000000    0.000000    0.000000 Ang=   0.00 deg.
 Initial guess orbital symmetries:
       Occupied  (A) (A) (A) (A) (A) (A) (A) (A)
       Virtual   (A) (A) (A) (A)
 Requested convergence on RMS density matrix=1.00D-08 within 128 cycles.
 Requested convergence on MAX density matrix=1.00D-06.
 Requested convergence on             energy=1.00D-06.
 No special actions if energy rises.
 Overlap will be assumed to be unity.
 Keep J ints in memory in canonical form, NReq=875096.
 SCF Done:  E(RPM6) = -0.179263059231     A.U. after    9 cycles
             Convg  =    0.4596D-08             -V/T =  0.9763
 Calling FoFJK, ICntrl=      2127 FMM=F ISym2X=0 I1Cent= 0 IOpClX= 0 NMat=1 NMatS=1 NMatT=0.
 ***** Axes restored to original set *****
 -------------------------------------------------------------------
 Center     Atomic                   Forces (Hartrees/Bohr)
 Number     Number              X              Y              Z
 -------------------------------------------------------------------
      1        8           0.000035179   -0.000008824   -0.001135536
      2        1           0.000128463    0.000000124    0.000289112
      3        1          -0.000440513    0.000020555    0.001013006
      4        8           0.000735150   -0.000005131   -0.000069817
      5        1          -0.000219227    0.000053995   -0.000054154
      6        1          -0.000239052   -0.000060718   -0.000042611
 -------------------------------------------------------------------
 Cartesian Forces:  Max     0.001135536 RMS     0.000426446

 GradGradGradGradGradGradGradGradGradGradGradGradGradGradGradGradGradGrad
 Berny optimization.
 Using GEDIIS/GDIIS optimizer.
 Internal  Forces:  Max     0.000961572 RMS     0.000336857
 Search for a local minimum.
 Step number   4 out of a maximum of   24
 All quantities printed in internal units (Hartrees-Bohrs-Radians)
 Mixed Optimization -- En-DIIS/RFO-DIIS
 Swaping is turned off.
 Update second derivatives using D2CorX and points    1    2    3    4
 DE= -1.89D-05 DEPred=-8.16D-06 R= 2.32D+00
 SS=  1.41D+00  RLast= 1.55D-02 DXNew= 8.4853D-01 4.6530D-02
 Trust test= 2.32D+00 RLast= 1.55D-02 DXMaxT set to 5.05D-01
 The second derivative matrix:
                          R1        R2        R3        R4        R5
           R1           0.61758
           R2           0.02331   0.54325
           R3          -0.00153  -0.00013   0.03041
           R4          -0.00500  -0.00539   0.00493   0.56572
           R5          -0.00544  -0.00524   0.00515   0.00118   0.56617
           A1           0.05086   0.04549   0.02560  -0.00635  -0.00751
           A2          -0.01926   0.01391   0.01437   0.01322   0.01254
           A3          -0.01278   0.01522  -0.01902   0.01570   0.01526
           A4          -0.01172   0.01534  -0.01679   0.01507   0.01463
           A5          -0.00652  -0.00116  -0.00554   0.00568   0.00590
           D1          -0.00029  -0.00016  -0.00003   0.00008   0.00009
           D2           0.00565   0.00043  -0.00147  -0.00280  -0.00280
           D3          -0.00600  -0.00084   0.00124   0.00284   0.00286
           D4          -0.00113   0.00131  -0.00246   0.00117   0.00111
                          A1        A2        A3        A4        A5
           A1           0.19870
           A2          -0.06000   0.20476
           A3          -0.01109  -0.02793   0.10436
           A4          -0.01132  -0.02777  -0.05226   0.11101
           A5           0.00181   0.01200  -0.00089   0.00008   0.16403
           D1          -0.00034   0.00021   0.00007   0.00007   0.00008
           D2           0.01013   0.00083   0.00098   0.00108  -0.00292
           D3          -0.01018  -0.00002  -0.00066  -0.00075   0.00295
           D4          -0.00099  -0.00361  -0.00688  -0.00670  -0.00147
                          D1        D2        D3        D4
           D1           0.01441
           D2          -0.00006   0.00338
           D3           0.00006  -0.00121   0.00363
           D4           0.00000   0.00020  -0.00018   0.01568
 ITU=  1  1  1  0
     Eigenvalues ---    0.00228   0.00541   0.01441   0.02947   0.11121
     Eigenvalues ---    0.13848   0.16167   0.25592   0.53962   0.56476
     Eigenvalues ---    0.56779   0.63684
 En-DIIS/RFO-DIIS IScMMF=        0 using points:     4    3    2    1
 RFO step:  Lambda=-7.10032895D-06.
 DidBck=F Rises=F RFO-DIIS coefs:    2.50193   -1.22809   -1.01052    0.73668
 Iteration  1 RMS(Cart)=  0.02098612 RMS(Int)=  0.00053443
 Iteration  2 RMS(Cart)=  0.00030506 RMS(Int)=  0.00035477
 Iteration  3 RMS(Cart)=  0.00000012 RMS(Int)=  0.00035477
 Variable       Old X    -DE/DX   Delta X   Delta X   Delta X     New X
                                  (DIIS)     (GDIIS)  (Total)
    R1        1.78534   0.00010  -0.00173   0.00095  -0.00079   1.78456
    R2        1.83512   0.00028   0.00159   0.00195   0.00354   1.83866
    R3        3.41853   0.00029  -0.01116   0.00282  -0.00834   3.41019
    R4        1.81145  -0.00004   0.00172   0.00016   0.00188   1.81333
    R5        1.81140  -0.00006   0.00167   0.00009   0.00176   1.81316
    A1        1.87791  -0.00054  -0.01015  -0.00058  -0.01074   1.86718
    A2        2.50260  -0.00096  -0.00740  -0.00869  -0.01609   2.48651
    A3        1.76605  -0.00030  -0.01772  -0.01031  -0.02827   1.73778
    A4        1.77194  -0.00014  -0.01668  -0.00963  -0.02671   1.74522
    A5        1.85809  -0.00002   0.00150  -0.00295  -0.00221   1.85588
    D1       -3.14112   0.00000   0.00056  -0.00039   0.00017  -3.14095
    D2       -0.95302   0.00008   0.01097   0.00632   0.01662  -0.93640
    D3        0.95951  -0.00007   0.00169  -0.00248  -0.00011   0.95939
    D4        1.84502  -0.00027  -0.02451  -0.01500  -0.03928   1.80574
         Item               Value     Threshold  Converged?
 Maximum Force            0.000962     0.000450     NO 
 RMS     Force            0.000337     0.000300     NO 
 Maximum Displacement     0.044079     0.001800     NO 
 RMS     Displacement     0.021121     0.001200     NO 
 Predicted change in Energy=-2.131643D-05
 GradGradGradGradGradGradGradGradGradGradGradGradGradGradGradGradGradGrad

                          Input orientation:                          
 ---------------------------------------------------------------------
 Center     Atomic      Atomic             Coordinates (Angstroms)
 Number     Number       Type             X           Y           Z
 ---------------------------------------------------------------------
      1          8           0       -1.305122   -0.004858   -0.133875
      2          1           0       -2.003224    0.000925    0.502060
      3          1           0       -0.468382    0.000726    0.362628
      4          8           0        1.323335    0.000678    0.147441
      5          1           0        1.415650   -0.766710   -0.421216
      6          1           0        1.423131    0.769258   -0.418189
 ---------------------------------------------------------------------
                    Distance matrix (angstroms):
                    1          2          3          4          5
     1  O    0.000000
     2  H    0.944348   0.000000
     3  H    0.972975   1.541162   0.000000
     4  O    2.643475   3.345407   1.804594   0.000000
     5  H    2.839997   3.623589   2.180126   0.959571   0.000000
     6  H    2.850168   3.630028   2.185896   0.959485   1.535990
                    6
     6  H    0.000000
 Stoichiometry    H4O2
 Framework group  C1[X(H4O2)]
 Deg. of freedom    12
 Full point group                 C1      NOp   1
 Largest Abelian subgroup         C1      NOp   1
 Largest concise Abelian subgroup C1      NOp   1
                         Standard orientation:                         
 ---------------------------------------------------------------------
 Center     Atomic      Atomic             Coordinates (Angstroms)
 Number     Number       Type             X           Y           Z
 ---------------------------------------------------------------------
      1          8           0        1.332954    0.006918   -0.117881
      2          1           0        2.020208   -0.033372    0.528532
      3          1           0        0.487942   -0.021788    0.363588
      4          8           0       -1.299884   -0.005764    0.118685
      5          1           0       -1.381128    0.790006   -0.411340
      6          1           0       -1.391577   -0.744074   -0.487206
 ---------------------------------------------------------------------
 Rotational constants (GHZ):    213.7785408      7.7821306      7.7797161
 Standard basis: VSTO-6G (5D, 7F)
 There are    12 symmetry adapted basis functions of A   symmetry.
 Integral buffers will be    262144 words long.
 Regular integral format.
 Two-electron integral symmetry is turned off.
    12 basis functions,    72 primitive gaussians,    12 cartesian basis functions
     8 alpha electrons        8 beta electrons
       nuclear repulsion energy        45.1379798915 Hartrees.
 Do NDO integrals.
 One-electron integrals computed using PRISM.
 NBasis=    12 RedAO= F  NBF=    12
 NBsUse=    12 1.00D-04 NBFU=    12
 Initial guess read from the read-write file.
 B after Tr=     0.000000    0.000000    0.000000
         Rot=    1.000000    0.000000    0.000000    0.000000 Ang=   0.00 deg.
 Initial guess orbital symmetries:
       Occupied  (A) (A) (A) (A) (A) (A) (A) (A)
       Virtual   (A) (A) (A) (A)
 Requested convergence on RMS density matrix=1.00D-08 within 128 cycles.
 Requested convergence on MAX density matrix=1.00D-06.
 Requested convergence on             energy=1.00D-06.
 No special actions if energy rises.
 Overlap will be assumed to be unity.
 Keep J ints in memory in canonical form, NReq=875096.
 SCF Done:  E(RPM6) = -0.179292502271     A.U. after   10 cycles
             Convg  =    0.1821D-08             -V/T =  0.9763
 Calling FoFJK, ICntrl=      2127 FMM=F ISym2X=0 I1Cent= 0 IOpClX= 0 NMat=1 NMatS=1 NMatT=0.
 ***** Axes restored to original set *****
 -------------------------------------------------------------------
 Center     Atomic                   Forces (Hartrees/Bohr)
 Number     Number              X              Y              Z
 -------------------------------------------------------------------
      1        8           0.000933739    0.000008349   -0.000492911
      2        1          -0.001031003   -0.000005880    0.000245302
      3        1          -0.000160554    0.000001510    0.000589260
      4        8           0.000424266    0.000012249   -0.000422366
      5        1          -0.000081716    0.000151869    0.000039221
      6        1          -0.000084732   -0.000168097    0.000041494
 -------------------------------------------------------------------
 Cartesian Forces:  Max     0.001031003 RMS     0.000410830

 GradGradGradGradGradGradGradGradGradGradGradGradGradGradGradGradGradGrad
 Berny optimization.
 Using GEDIIS/GDIIS optimizer.
 Internal  Forces:  Max     0.001215750 RMS     0.000491834
 Search for a local minimum.
 Step number   5 out of a maximum of   24
 All quantities printed in internal units (Hartrees-Bohrs-Radians)
 Mixed Optimization -- En-DIIS/RFO-DIIS
 Swaping is turned off.
 Update second derivatives using D2CorX and points    1    2    3    4    5
 DE= -2.94D-05 DEPred=-2.13D-05 R= 1.38D+00
 SS=  1.41D+00  RLast= 6.16D-02 DXNew= 8.4853D-01 1.8494D-01
 Trust test= 1.38D+00 RLast= 6.16D-02 DXMaxT set to 5.05D-01
 The second derivative matrix:
                          R1        R2        R3        R4        R5
           R1           0.65570
           R2           0.02320   0.54194
           R3           0.00586  -0.00029   0.03042
           R4          -0.01379  -0.00553   0.00252   0.56789
           R5          -0.01441  -0.00532   0.00275   0.00341   0.56845
           A1           0.10392   0.04679   0.03799  -0.01739  -0.01891
           A2          -0.04083   0.01686   0.01398   0.01932   0.01855
           A3          -0.00450   0.01761  -0.01613   0.01391   0.01331
           A4          -0.00843   0.01721  -0.01488   0.01454   0.01398
           A5          -0.01644  -0.00007  -0.00632   0.00833   0.00853
           D1          -0.00079  -0.00016  -0.00012   0.00020   0.00021
           D2           0.00299   0.00064  -0.00038  -0.00209  -0.00212
           D3          -0.00410  -0.00107  -0.00001   0.00230   0.00235
           D4           0.00694   0.00232  -0.00050  -0.00075  -0.00090
                          A1        A2        A3        A4        A5
           A1           0.26820
           A2          -0.09823   0.20365
           A3          -0.00383  -0.03929   0.10179
           A4          -0.01046  -0.03554  -0.05517   0.10824
           A5          -0.01474   0.01302  -0.00556  -0.00295   0.16492
           D1          -0.00106   0.00049  -0.00004   0.00002   0.00021
           D2           0.00391  -0.00077  -0.00020   0.00006  -0.00325
           D3          -0.00495   0.00210   0.00042   0.00025   0.00350
           D4           0.00863  -0.01055  -0.00679  -0.00737  -0.00449
                          D1        D2        D3        D4
           D1           0.01442
           D2          -0.00003   0.00273
           D3           0.00004  -0.00048   0.00284
           D4          -0.00011  -0.00039   0.00028   0.01674
 ITU=  1  1  1  1  0
     Eigenvalues ---    0.00228   0.00439   0.01442   0.02032   0.11186
     Eigenvalues ---    0.13600   0.16080   0.30734   0.54076   0.56476
     Eigenvalues ---    0.56855   0.70556
 En-DIIS/RFO-DIIS IScMMF=        0 using points:     5    4    3    2    1
 RFO step:  Lambda=-6.54612854D-06.
 DidBck=F Rises=F RFO-DIIS coefs:    2.55910   -2.63385    0.48141    4.58775   -3.99441
 Iteration  1 RMS(Cart)=  0.02518209 RMS(Int)=  0.00086621
 Iteration  2 RMS(Cart)=  0.00053405 RMS(Int)=  0.00054434
 Iteration  3 RMS(Cart)=  0.00000035 RMS(Int)=  0.00054434
 Variable       Old X    -DE/DX   Delta X   Delta X   Delta X     New X
                                  (DIIS)     (GDIIS)  (Total)
    R1        1.78456   0.00093   0.00116   0.00067   0.00184   1.78640
    R2        1.83866   0.00021   0.00500  -0.00082   0.00417   1.84283
    R3        3.41019   0.00030   0.00160  -0.00051   0.00109   3.41128
    R4        1.81333  -0.00015   0.00154   0.00025   0.00178   1.81511
    R5        1.81316  -0.00017   0.00140   0.00021   0.00160   1.81477
    A1        1.86718   0.00092  -0.00323   0.00044  -0.00279   1.86439
    A2        2.48651  -0.00122  -0.01866  -0.00947  -0.02813   2.45837
    A3        1.73778  -0.00010  -0.02664  -0.00658  -0.03356   1.70422
    A4        1.74522  -0.00004  -0.02508  -0.00611  -0.03182   1.71340
    A5        1.85588  -0.00006  -0.00240   0.00028  -0.00327   1.85262
    D1       -3.14095  -0.00001  -0.00032  -0.00129  -0.00161   3.14063
    D2       -0.93640   0.00004   0.01531  -0.00195   0.01232  -0.92408
    D3        0.95939  -0.00005  -0.00144  -0.00470  -0.00510   0.95429
    D4        1.80574  -0.00009  -0.03736  -0.00872  -0.04567   1.76007
         Item               Value     Threshold  Converged?
 Maximum Force            0.001216     0.000450     NO 
 RMS     Force            0.000492     0.000300     NO 
 Maximum Displacement     0.049744     0.001800     NO 
 RMS     Displacement     0.025367     0.001200     NO 
 Predicted change in Energy=-3.343053D-06
 GradGradGradGradGradGradGradGradGradGradGradGradGradGradGradGradGradGrad

                          Input orientation:                          
 ---------------------------------------------------------------------
 Center     Atomic      Atomic             Coordinates (Angstroms)
 Number     Number       Type             X           Y           Z
 ---------------------------------------------------------------------
      1          8           0       -1.284685   -0.005733   -0.136514
      2          1           0       -1.995412    0.000557    0.486749
      3          1           0       -0.457037    0.001688    0.379167
      4          8           0        1.333831    0.000700    0.152369
      5          1           0        1.389327   -0.766349   -0.423083
      6          1           0        1.399365    0.769155   -0.419840
 ---------------------------------------------------------------------
                    Distance matrix (angstroms):
                    1          2          3          4          5
     1  O    0.000000
     2  H    0.945320   0.000000
     3  H    0.975184   1.542133   0.000000
     4  O    2.634411   3.345993   1.805172   0.000000
     5  H    2.794816   3.587812   2.154656   0.960514   0.000000
     6  H    2.807997   3.596826   2.161861   0.960333   1.535540
                    6
     6  H    0.000000
 Stoichiometry    H4O2
 Framework group  C1[X(H4O2)]
 Deg. of freedom    12
 Full point group                 C1      NOp   1
 Largest Abelian subgroup         C1      NOp   1
 Largest concise Abelian subgroup C1      NOp   1
                         Standard orientation:                         
 ---------------------------------------------------------------------
 Center     Atomic      Atomic             Coordinates (Angstroms)
 Number     Number       Type             X           Y           Z
 ---------------------------------------------------------------------
      1          8           0        1.323827    0.008511   -0.116680
      2          1           0        2.021658   -0.040402    0.519143
      3          1           0        0.485803   -0.029117    0.380594
      4          8           0       -1.300052   -0.007144    0.118129
      5          1           0       -1.342046    0.795532   -0.407738
      6          1           0       -1.355619   -0.736953   -0.503588
 ---------------------------------------------------------------------
 Rotational constants (GHZ):    212.8401813      7.8519013      7.8498587
 Standard basis: VSTO-6G (5D, 7F)
 There are    12 symmetry adapted basis functions of A   symmetry.
 Integral buffers will be    262144 words long.
 Regular integral format.
 Two-electron integral symmetry is turned off.
    12 basis functions,    72 primitive gaussians,    12 cartesian basis functions
     8 alpha electrons        8 beta electrons
       nuclear repulsion energy        45.1819104412 Hartrees.
 Do NDO integrals.
 One-electron integrals computed using PRISM.
 NBasis=    12 RedAO= F  NBF=    12
 NBsUse=    12 1.00D-04 NBFU=    12
 Initial guess read from the read-write file.
 B after Tr=     0.000000    0.000000    0.000000
         Rot=    1.000000    0.000000    0.000000    0.000000 Ang=   0.00 deg.
 Initial guess orbital symmetries:
       Occupied  (A) (A) (A) (A) (A) (A) (A) (A)
       Virtual   (A) (A) (A) (A)
 Requested convergence on RMS density matrix=1.00D-08 within 128 cycles.
 Requested convergence on MAX density matrix=1.00D-06.
 Requested convergence on             energy=1.00D-06.
 No special actions if energy rises.
 Overlap will be assumed to be unity.
 Keep J ints in memory in canonical form, NReq=875096.
 SCF Done:  E(RPM6) = -0.179327557400     A.U. after   10 cycles
             Convg  =    0.2390D-08             -V/T =  0.9762
 Calling FoFJK, ICntrl=      2127 FMM=F ISym2X=0 I1Cent= 0 IOpClX= 0 NMat=1 NMatS=1 NMatT=0.
 ***** Axes restored to original set *****
 -------------------------------------------------------------------
 Center     Atomic                   Forces (Hartrees/Bohr)
 Number     Number              X              Y              Z
 -------------------------------------------------------------------
      1        8           0.001563220    0.000019833    0.000106582
      2        1          -0.000951376   -0.000010931    0.000001259
      3        1          -0.000673389   -0.000004898    0.000421623
      4        8          -0.000113473   -0.000001636   -0.000786457
      5        1           0.000086175    0.000148133    0.000134704
      6        1           0.000088843   -0.000150501    0.000122289
 -------------------------------------------------------------------
 Cartesian Forces:  Max     0.001563220 RMS     0.000511875

 GradGradGradGradGradGradGradGradGradGradGradGradGradGradGradGradGradGrad
 Berny optimization.
 Using GEDIIS/GDIIS optimizer.
 Internal  Forces:  Max     0.001546568 RMS     0.000574233
 Search for a local minimum.
 Step number   6 out of a maximum of   24
 All quantities printed in internal units (Hartrees-Bohrs-Radians)
 Mixed Optimization -- En-DIIS/RFO-DIIS
 Swaping is turned off.
 Update second derivatives using D2CorX and points    1    2    3    4    5
                                                      6
 DE= -3.51D-05 DEPred=-3.34D-06 R= 1.05D+01
 SS=  1.41D+00  RLast= 7.24D-02 DXNew= 8.4853D-01 2.1722D-01
 Trust test= 1.05D+01 RLast= 7.24D-02 DXMaxT set to 5.05D-01
 The second derivative matrix:
                          R1        R2        R3        R4        R5
           R1           0.61437
           R2          -0.00128   0.58013
           R3          -0.01012   0.00117   0.02682
           R4          -0.00712   0.00476   0.00627   0.56766
           R5          -0.00666   0.00412   0.00659   0.00284   0.56754
           A1           0.07315  -0.00881   0.01765  -0.01662  -0.01627
           A2           0.00149   0.06443   0.03370   0.01555   0.01307
           A3           0.00498   0.00242  -0.01679   0.00982   0.00955
           A4          -0.00244   0.01136  -0.01435   0.01236   0.01191
           A5          -0.00776   0.00430  -0.00259   0.00672   0.00671
           D1          -0.00036   0.00049   0.00013   0.00018   0.00016
           D2           0.00031   0.00403   0.00013  -0.00122  -0.00133
           D3          -0.00103  -0.00357  -0.00023   0.00145   0.00155
           D4           0.01264  -0.01158  -0.00214  -0.00372  -0.00352
                          A1        A2        A3        A4        A5
           A1           0.27310
           A2          -0.08076   0.17141
           A3           0.01786  -0.05840   0.10775
           A4           0.00039  -0.04592  -0.05278   0.10908
           A5          -0.00834   0.00401  -0.00697  -0.00411   0.16239
           D1          -0.00102   0.00021  -0.00030  -0.00011   0.00011
           D2          -0.00230   0.00404  -0.00126  -0.00038  -0.00321
           D3           0.00106  -0.00284   0.00113   0.00052   0.00338
           D4           0.02537  -0.02407  -0.00147  -0.00511  -0.00504
                          D1        D2        D3        D4
           D1           0.01442
           D2           0.00004   0.00281
           D3          -0.00002  -0.00047   0.00274
           D4          -0.00030  -0.00135   0.00097   0.02135
 ITU=  1  1  1  1  1  0
     Eigenvalues ---    0.00227   0.00273   0.01263   0.01445   0.11296
     Eigenvalues ---    0.13301   0.16231   0.31087   0.56474   0.56658
     Eigenvalues ---    0.59352   0.63587
 En-DIIS/RFO-DIIS IScMMF=        0 using points:     6    5    4    3    2
 RFO step:  Lambda=-1.09368825D-05.
 DidBck=F Rises=F RFO-DIIS coefs:    2.91327   -2.42440    0.93242   -0.47106    0.04977
 Iteration  1 RMS(Cart)=  0.04986853 RMS(Int)=  0.00270096
 Iteration  2 RMS(Cart)=  0.00213405 RMS(Int)=  0.00083869
 Iteration  3 RMS(Cart)=  0.00000522 RMS(Int)=  0.00083868
 Iteration  4 RMS(Cart)=  0.00000000 RMS(Int)=  0.00083868
 Variable       Old X    -DE/DX   Delta X   Delta X   Delta X     New X
                                  (DIIS)     (GDIIS)  (Total)
    R1        1.78640   0.00072   0.00389   0.00054   0.00443   1.79083
    R2        1.84283  -0.00058   0.00634  -0.00121   0.00514   1.84797
    R3        3.41128   0.00013   0.01685  -0.00232   0.01453   3.42581
    R4        1.81511  -0.00019   0.00241   0.00048   0.00289   1.81800
    R5        1.81477  -0.00019   0.00211   0.00046   0.00258   1.81734
    A1        1.86439   0.00112  -0.00411   0.00115  -0.00296   1.86143
    A2        2.45837  -0.00155  -0.04714  -0.02070  -0.06784   2.39053
    A3        1.70422   0.00014  -0.04747  -0.01308  -0.06087   1.64335
    A4        1.71340   0.00007  -0.04530  -0.01260  -0.05853   1.65487
    A5        1.85262   0.00000  -0.00388  -0.00013  -0.00579   1.84683
    D1        3.14063  -0.00002  -0.00304  -0.00164  -0.00468   3.13595
    D2       -0.92408  -0.00003   0.01533   0.00164   0.01525  -0.90883
    D3        0.95429   0.00001  -0.00652  -0.00337  -0.00817   0.94613
    D4        1.76007   0.00011  -0.06385  -0.01756  -0.08097   1.67911
         Item               Value     Threshold  Converged?
 Maximum Force            0.001547     0.000450     NO 
 RMS     Force            0.000574     0.000300     NO 
 Maximum Displacement     0.094147     0.001800     NO 
 RMS     Displacement     0.050611     0.001200     NO 
 Predicted change in Energy=-3.482178D-05
 GradGradGradGradGradGradGradGradGradGradGradGradGradGradGradGradGradGrad

                          Input orientation:                          
 ---------------------------------------------------------------------
 Center     Atomic      Atomic             Coordinates (Angstroms)
 Number     Number       Type             X           Y           Z
 ---------------------------------------------------------------------
      1          8           0       -1.242240   -0.005587   -0.139067
      2          1           0       -1.982584   -0.001586    0.452494
      3          1           0       -0.438482    0.003794    0.417869
      4          8           0        1.355343    0.000527    0.155876
      5          1           0        1.339506   -0.765780   -0.425543
      6          1           0        1.353844    0.768650   -0.422781
 ---------------------------------------------------------------------
                    Distance matrix (angstroms):
                    1          2          3          4          5
     1  O    0.000000
     2  H    0.947665   0.000000
     3  H    0.977903   1.544499   0.000000
     4  O    2.614282   3.351081   1.812860   0.000000
     5  H    2.706543   3.520117   2.113015   0.962042   0.000000
     6  H    2.723893   3.534278   2.122294   0.961697   1.534500
                    6
     6  H    0.000000
 Stoichiometry    H4O2
 Framework group  C1[X(H4O2)]
 Deg. of freedom    12
 Full point group                 C1      NOp   1
 Largest Abelian subgroup         C1      NOp   1
 Largest concise Abelian subgroup C1      NOp   1
                         Standard orientation:                         
 ---------------------------------------------------------------------
 Center     Atomic      Atomic             Coordinates (Angstroms)
 Number     Number       Type             X           Y           Z
 ---------------------------------------------------------------------
      1          8           0       -1.304362    0.007799    0.114110
      2          1           0       -2.029699   -0.035706   -0.494217
      3          1           0       -0.486934   -0.032880   -0.421100
      4          8           0        1.299781   -0.006372   -0.115474
      5          1           0        1.267614    0.794380    0.416774
      6          1           0        1.285668   -0.737213    0.509453
 ---------------------------------------------------------------------
 Rotational constants (GHZ):    212.5399068      7.9982694      7.9964107
 Standard basis: VSTO-6G (5D, 7F)
 There are    12 symmetry adapted basis functions of A   symmetry.
 Integral buffers will be    262144 words long.
 Regular integral format.
 Two-electron integral symmetry is turned off.
    12 basis functions,    72 primitive gaussians,    12 cartesian basis functions
     8 alpha electrons        8 beta electrons
       nuclear repulsion energy        45.2720171969 Hartrees.
 Do NDO integrals.
 One-electron integrals computed using PRISM.
 NBasis=    12 RedAO= F  NBF=    12
 NBsUse=    12 1.00D-04 NBFU=    12
 Initial guess read from the read-write file.
 B after Tr=     0.000000    0.000000    0.000000
         Rot=    1.000000    0.000000    0.000000    0.000000 Ang=   0.00 deg.
 Initial guess orbital symmetries:
       Occupied  (A) (A) (A) (A) (A) (A) (A) (A)
       Virtual   (A) (A) (A) (A)
 Requested convergence on RMS density matrix=1.00D-08 within 128 cycles.
 Requested convergence on MAX density matrix=1.00D-06.
 Requested convergence on             energy=1.00D-06.
 No special actions if energy rises.
 Overlap will be assumed to be unity.
 Keep J ints in memory in canonical form, NReq=875096.
 SCF Done:  E(RPM6) = -0.179388475072     A.U. after   14 cycles
             Convg  =    0.1358D-08             -V/T =  0.9762
 Calling FoFJK, ICntrl=      2127 FMM=F ISym2X=0 I1Cent= 0 IOpClX= 0 NMat=1 NMatS=1 NMatT=0.
 ***** Axes restored to original set *****
 -------------------------------------------------------------------
 Center     Atomic                   Forces (Hartrees/Bohr)
 Number     Number              X              Y              Z
 -------------------------------------------------------------------
      1        8           0.002188099    0.000033138    0.001154962
      2        1          -0.000454629   -0.000017677   -0.000554106
      3        1          -0.001347406   -0.000009845    0.000249747
      4        8          -0.001195713   -0.000029850   -0.001317013
      5        1           0.000401641    0.000122110    0.000251001
      6        1           0.000408008   -0.000097875    0.000215408
 -------------------------------------------------------------------
 Cartesian Forces:  Max     0.002188099 RMS     0.000821301

 GradGradGradGradGradGradGradGradGradGradGradGradGradGradGradGradGradGrad
 Berny optimization.
 Using GEDIIS/GDIIS optimizer.
 Internal  Forces:  Max     0.002195514 RMS     0.000862720
 Search for a local minimum.
 Step number   7 out of a maximum of   24
 All quantities printed in internal units (Hartrees-Bohrs-Radians)
 Mixed Optimization -- En-DIIS/RFO-DIIS
 Swaping is turned off.
 Update second derivatives using D2CorX and points    1    2    3    4    5
                                                      6    7
 DE= -6.09D-05 DEPred=-3.48D-05 R= 1.75D+00
 SS=  1.41D+00  RLast= 1.38D-01 DXNew= 8.4853D-01 4.1269D-01
 Trust test= 1.75D+00 RLast= 1.38D-01 DXMaxT set to 5.05D-01
 The second derivative matrix:
                          R1        R2        R3        R4        R5
           R1           0.60057
           R2           0.03482   0.66349
           R3          -0.00814   0.02671   0.03248
           R4           0.00165   0.01063   0.00974   0.56683
           R5           0.00123   0.00728   0.00932   0.00175   0.56630
           A1           0.03150  -0.03563  -0.00053  -0.01181  -0.01028
           A2           0.04643   0.11407   0.05538   0.01457   0.01023
           A3          -0.01028  -0.02802  -0.02630   0.00801   0.00875
           A4          -0.00914  -0.00332  -0.01868   0.01126   0.01129
           A5          -0.00468  -0.00330  -0.00310   0.00486   0.00503
           D1           0.00014   0.00070   0.00032   0.00011   0.00008
           D2           0.00301   0.00951   0.00197  -0.00101  -0.00130
           D3          -0.00307  -0.00868  -0.00179   0.00115   0.00141
           D4           0.00047  -0.03324  -0.00941  -0.00458  -0.00366
                          A1        A2        A3        A4        A5
           A1           0.25185
           A2          -0.07227   0.18017
           A3           0.02491  -0.07608   0.11886
           A4           0.00450  -0.05438  -0.04717   0.11176
           A5           0.00078  -0.00523  -0.00383  -0.00284   0.16157
           D1          -0.00067   0.00000  -0.00035  -0.00014   0.00001
           D2          -0.00374   0.00775  -0.00303  -0.00141  -0.00391
           D3           0.00288  -0.00673   0.00281   0.00149   0.00394
           D4           0.02900  -0.03674   0.00594  -0.00107  -0.00237
                          D1        D2        D3        D4
           D1           0.01441
           D2           0.00005   0.00298
           D3          -0.00004  -0.00062   0.00287
           D4          -0.00032  -0.00229   0.00186   0.02572
 ITU=  1  1  1  1  1  1  0
     Eigenvalues ---    0.00172   0.00232   0.01032   0.01445   0.11433
     Eigenvalues ---    0.13230   0.16923   0.29947   0.56474   0.56716
     Eigenvalues ---    0.59252   0.72229
 En-DIIS/RFO-DIIS IScMMF=        0 using points:     7    6    5    4    3
 RFO step:  Lambda=-1.86505474D-05.
 EnCoef did   100 forward-backward iterations
 Matrix for removal  4 Erem=-0.179327557399631     Crem= 0.000D+00
 DidBck=T Rises=F  En-DIIS coefs:    0.76419    0.00000    0.00235    0.00093    0.23254
 Point #    5 is marked for removal
 RFO step:  Lambda=-9.37405758D-05 EMin= 1.71946510D-03
 Iteration  1 RMS(Cart)=  0.04699360 RMS(Int)=  0.00211506
 Iteration  2 RMS(Cart)=  0.00191727 RMS(Int)=  0.00037088
 Iteration  3 RMS(Cart)=  0.00000329 RMS(Int)=  0.00037087
 Iteration  4 RMS(Cart)=  0.00000000 RMS(Int)=  0.00037087
 Variable       Old X    -DE/DX   Delta X   Delta X   Delta X     New X
                                  (DIIS)     (GDIIS)  (Total)
    R1        1.79083   0.00001  -0.00118   0.00581   0.00463   1.79546
    R2        1.84797  -0.00177  -0.00320   0.00443   0.00123   1.84920
    R3        3.42581  -0.00026  -0.00400   0.02849   0.02450   3.45031
    R4        1.81800  -0.00026  -0.00165   0.00338   0.00172   1.81972
    R5        1.81734  -0.00021  -0.00150   0.00301   0.00150   1.81885
    A1        1.86143   0.00128   0.00574  -0.00355   0.00219   1.86361
    A2        2.39053  -0.00220   0.02736  -0.10359  -0.07623   2.31431
    A3        1.64335   0.00058   0.02947  -0.07684  -0.04722   1.59613
    A4        1.65487   0.00026   0.02817  -0.07449  -0.04586   1.60901
    A5        1.84683   0.00014   0.00215  -0.00532  -0.00244   1.84438
    D1        3.13595  -0.00002   0.00137  -0.00710  -0.00574   3.13021
    D2       -0.90883  -0.00012  -0.01123   0.01441   0.00388  -0.90495
    D3        0.94613   0.00010   0.00212  -0.00681  -0.00539   0.94074
    D4        1.67911   0.00045   0.03978  -0.10086  -0.06149   1.61762
         Item               Value     Threshold  Converged?
 Maximum Force            0.002196     0.000450     NO 
 RMS     Force            0.000863     0.000300     NO 
 Maximum Displacement     0.080783     0.001800     NO 
 RMS     Displacement     0.047781     0.001200     NO 
 Predicted change in Energy=-3.419643D-05
 GradGradGradGradGradGradGradGradGradGradGradGradGradGradGradGradGradGrad

                          Input orientation:                          
 ---------------------------------------------------------------------
 Center     Atomic      Atomic             Coordinates (Angstroms)
 Number     Number       Type             X           Y           Z
 ---------------------------------------------------------------------
      1          8           0       -1.200475   -0.003460   -0.137117
      2          1           0       -1.973293   -0.004873    0.415578
      3          1           0       -0.425749    0.005675    0.460618
      4          8           0        1.373730    0.000226    0.151623
      5          1           0        1.296865   -0.765945   -0.426610
      6          1           0        1.314310    0.768396   -0.425244
 ---------------------------------------------------------------------
                    Distance matrix (angstroms):
                    1          2          3          4          5
     1  O    0.000000
     2  H    0.950116   0.000000
     3  H    0.978556   1.548235   0.000000
     4  O    2.590350   3.357418   1.825823   0.000000
     5  H    2.627146   3.461566   2.085658   0.962953   0.000000
     6  H    2.646304   3.480410   2.096258   0.962492   1.534441
                    6
     6  H    0.000000
 Stoichiometry    H4O2
 Framework group  C1[X(H4O2)]
 Deg. of freedom    12
 Full point group                 C1      NOp   1
 Largest Abelian subgroup         C1      NOp   1
 Largest concise Abelian subgroup C1      NOp   1
                         Standard orientation:                         
 ---------------------------------------------------------------------
 Center     Atomic      Atomic             Coordinates (Angstroms)
 Number     Number       Type             X           Y           Z
 ---------------------------------------------------------------------
      1          8           0       -1.283658    0.002997    0.111251
      2          1           0       -2.042065   -0.012790   -0.460840
      3          1           0       -0.493859   -0.020589   -0.466012
      4          8           0        1.297101   -0.002003   -0.111401
      5          1           0        1.204017    0.779589    0.443330
      6          1           0        1.224361   -0.754158    0.484722
 ---------------------------------------------------------------------
 Rotational constants (GHZ):    213.8319717      8.1577660      8.1563570
 Standard basis: VSTO-6G (5D, 7F)
 There are    12 symmetry adapted basis functions of A   symmetry.
 Integral buffers will be    262144 words long.
 Regular integral format.
 Two-electron integral symmetry is turned off.
    12 basis functions,    72 primitive gaussians,    12 cartesian basis functions
     8 alpha electrons        8 beta electrons
       nuclear repulsion energy        45.3661496632 Hartrees.
 Do NDO integrals.
 One-electron integrals computed using PRISM.
 NBasis=    12 RedAO= F  NBF=    12
 NBsUse=    12 1.00D-04 NBFU=    12
 Initial guess read from the read-write file.
 B after Tr=     0.000000    0.000000    0.000000
         Rot=    1.000000    0.000000    0.000000    0.000000 Ang=   0.00 deg.
 Initial guess orbital symmetries:
       Occupied  (A) (A) (A) (A) (A) (A) (A) (A)
       Virtual   (A) (A) (A) (A)
 Requested convergence on RMS density matrix=1.00D-08 within 128 cycles.
 Requested convergence on MAX density matrix=1.00D-06.
 Requested convergence on             energy=1.00D-06.
 No special actions if energy rises.
 Overlap will be assumed to be unity.
 Keep J ints in memory in canonical form, NReq=875096.
 SCF Done:  E(RPM6) = -0.179478371814     A.U. after   10 cycles
             Convg  =    0.3112D-08             -V/T =  0.9762
 Calling FoFJK, ICntrl=      2127 FMM=F ISym2X=0 I1Cent= 0 IOpClX= 0 NMat=1 NMatS=1 NMatT=0.
 ***** Axes restored to original set *****
 -------------------------------------------------------------------
 Center     Atomic                   Forces (Hartrees/Bohr)
 Number     Number              X              Y              Z
 -------------------------------------------------------------------
      1        8           0.002043861    0.000015509    0.001722158
      2        1           0.000524802   -0.000008454   -0.001000126
      3        1          -0.001768236    0.000002374    0.000333424
      4        8          -0.002033595   -0.000060105   -0.001408661
      5        1           0.000619440    0.000234002    0.000200359
      6        1           0.000613729   -0.000183326    0.000152846
 -------------------------------------------------------------------
 Cartesian Forces:  Max     0.002043861 RMS     0.001019060

 GradGradGradGradGradGradGradGradGradGradGradGradGradGradGradGradGradGrad
 Berny optimization.
 Using GEDIIS/GDIIS optimizer.
 Internal  Forces:  Max     0.002757255 RMS     0.001119244
 Search for a local minimum.
 Step number   8 out of a maximum of   24
 All quantities printed in internal units (Hartrees-Bohrs-Radians)
 Mixed Optimization -- RFO/linear search
 Update second derivatives using D2CorX and points    1    2    3    4    5
                                                      6    7    8
 DE= -8.99D-05 DEPred=-3.42D-05 R= 2.63D+00
 SS=  1.41D+00  RLast= 1.21D-01 DXNew= 8.4853D-01 3.6299D-01
 Trust test= 2.63D+00 RLast= 1.21D-01 DXMaxT set to 5.05D-01
 The second derivative matrix:
                          R1        R2        R3        R4        R5
           R1           0.83590
           R2           0.23307   0.72408
           R3           0.08050   0.08114   0.06217
           R4           0.02859   0.01622   0.01626   0.56735
           R5           0.01959   0.00865   0.01319   0.00177   0.56605
           A1           0.09092   0.09947   0.03833   0.00901   0.00596
           A2           0.20180   0.13243   0.09133   0.01492   0.00809
           A3          -0.09329  -0.05664  -0.04930   0.00480   0.00741
           A4          -0.04626  -0.00979  -0.02750   0.01062   0.01131
           A5           0.00620   0.01267   0.00237   0.00705   0.00663
           D1          -0.00132  -0.00145  -0.00041  -0.00021  -0.00016
           D2          -0.00581  -0.00255  -0.00207  -0.00286  -0.00270
           D3           0.00325   0.00001   0.00107   0.00251   0.00245
           D4          -0.05711  -0.05680  -0.02624  -0.00719  -0.00488
                          A1        A2        A3        A4        A5
           A1           0.19795
           A2           0.05796   0.16438
           A3          -0.02921  -0.08820   0.13261
           A4          -0.02498  -0.05276  -0.04324   0.11172
           A5          -0.00206   0.01046  -0.01031  -0.00708   0.15997
           D1          -0.00030  -0.00194   0.00053   0.00030   0.00000
           D2          -0.00245  -0.00297   0.00199   0.00103  -0.00428
           D3           0.00197   0.00099  -0.00084  -0.00026   0.00428
[...]
                                                     19   20   21   22   23
 DE= -2.39D-07 DEPred=-1.32D-07 R= 1.82D+00
 Trust test= 1.82D+00 RLast= 9.84D-03 DXMaxT set to 7.33D-01
 The second derivative matrix:
                          R1        R2        R3        R4        R5
           R1           0.23028
           R2          -0.00151   0.41155
           R3          -0.00250   0.03609   0.02564
           R4          -0.02766   0.00065   0.00974   0.57016
           R5          -0.01656  -0.01319   0.01061   0.00602   0.57278
           A1           0.04713   0.07391   0.01178   0.01680   0.01661
           A2           0.00337   0.02589   0.03077   0.00058   0.00316
           A3          -0.00019  -0.04109   0.00704   0.01597   0.01027
           A4          -0.00686   0.04553   0.00272   0.01782   0.01730
           A5           0.00293   0.00760  -0.00219   0.00111   0.00033
           D1          -0.00051   0.03325   0.00373  -0.00035   0.00202
           D2           0.00010  -0.00068  -0.00047  -0.02127  -0.02378
           D3           0.00007  -0.00266  -0.00040   0.02098   0.02492
           D4          -0.00252  -0.00521   0.00354  -0.00284  -0.00282
                          A1        A2        A3        A4        A5
           A1           0.16337
           A2           0.01049   0.05008
           A3           0.00224   0.00664   0.07853
           A4           0.01071  -0.00480  -0.06146   0.09600
           A5           0.01722  -0.00115   0.00194   0.00579   0.10697
           D1           0.00539   0.00260   0.00372  -0.00434   0.00106
           D2          -0.00504  -0.00062  -0.00246  -0.00219  -0.03262
           D3           0.00467  -0.00036   0.00287   0.00269   0.03209
           D4          -0.00169   0.00008  -0.00419  -0.00825  -0.00164
                          D1        D2        D3        D4
           D1           0.01054
           D2           0.00010   0.01358
           D3           0.00024  -0.01240   0.01663
           D4          -0.00186   0.00158  -0.00163   0.02111
 ITU=  0  0  1  1  1  1  1  0  1  1  1  0 -1  1  1
     Eigenvalues ---    0.00128   0.00267   0.00689   0.01566   0.06215
     Eigenvalues ---    0.10628   0.12457   0.13476   0.24993   0.44913
     Eigenvalues ---    0.56628   0.58424
 En-DIIS/RFO-DIIS IScMMF=        0 using points:    23   22   21   20   19
 RFO step:  Lambda=-1.93684313D-08.
 DidBck=F Rises=F RFO-DIIS coefs:    1.30931   -0.06054   -0.37041    0.15917   -0.03752
 Iteration  1 RMS(Cart)=  0.00107979 RMS(Int)=  0.00000456
 Iteration  2 RMS(Cart)=  0.00000141 RMS(Int)=  0.00000431
 Iteration  3 RMS(Cart)=  0.00000000 RMS(Int)=  0.00000431
 Variable       Old X    -DE/DX   Delta X   Delta X   Delta X     New X
                                  (DIIS)     (GDIIS)  (Total)
    R1        1.79135  -0.00001  -0.00008  -0.00007  -0.00015   1.79120
    R2        1.82348  -0.00004   0.00039  -0.00009   0.00030   1.82378
    R3        3.89571  -0.00002  -0.00209  -0.00028  -0.00237   3.89335
    R4        1.81608   0.00001   0.00001   0.00001   0.00001   1.81609
    R5        1.81601   0.00001   0.00004   0.00001   0.00005   1.81606
    A1        1.88662   0.00004   0.00028   0.00006   0.00034   1.88696
    A2        1.68034  -0.00002   0.00104  -0.00013   0.00091   1.68126
    A3        1.47807   0.00004   0.00069   0.00040   0.00109   1.47916
    A4        1.48132  -0.00002   0.00027  -0.00006   0.00021   1.48153
    A5        1.83972   0.00001   0.00001   0.00005   0.00005   1.83976
    D1       -3.12959  -0.00002  -0.00129  -0.00177  -0.00307  -3.13266
    D2       -0.92768   0.00000   0.00069  -0.00023   0.00044  -0.92723
    D3        0.92301   0.00000   0.00055  -0.00023   0.00034   0.92335
    D4        1.45180  -0.00001   0.00048   0.00004   0.00053   1.45233
         Item               Value     Threshold  Converged?
 Maximum Force            0.000038     0.000450     YES
 RMS     Force            0.000021     0.000300     YES
 Maximum Displacement     0.002327     0.001800     NO 
 RMS     Displacement     0.001079     0.001200     YES
 Predicted change in Energy=-6.262952D-08
 GradGradGradGradGradGradGradGradGradGradGradGradGradGradGradGradGradGrad

                          Input orientation:                          
 ---------------------------------------------------------------------
 Center     Atomic      Atomic             Coordinates (Angstroms)
 Number     Number       Type             X           Y           Z
 ---------------------------------------------------------------------
      1          8           0       -0.941869   -0.004695   -0.037992
      2          1           0       -1.875226    0.002251    0.127061
      3          1           0       -0.486578    0.006380    0.812896
      4          8           0        1.426084    0.003802    0.047110
      5          1           0        1.133438   -0.768311   -0.444610
      6          1           0        1.129538    0.760590   -0.465616
 ---------------------------------------------------------------------
                    Distance matrix (angstroms):
                    1          2          3          4          5
     1  O    0.000000
     2  H    0.947864   0.000000
     3  H    0.965103   1.548784   0.000000
     4  O    2.369497   3.302279   2.060270   0.000000
     5  H    2.248410   3.157948   2.192241   0.961036   0.000000
     6  H    2.249278   3.155147   2.194369   0.961018   1.529051
                    6
     6  H    0.000000
 Stoichiometry    H4O2
 Framework group  C1[X(H4O2)]
 Deg. of freedom    12
 Full point group                 C1      NOp   1
 Largest Abelian subgroup         C1      NOp   1
 Largest concise Abelian subgroup C1      NOp   1
                         Standard orientation:                         
 ---------------------------------------------------------------------
 Center     Atomic      Atomic             Coordinates (Angstroms)
 Number     Number       Type             X           Y           Z
 ---------------------------------------------------------------------
      1          8           0       -1.128755    0.000470   -0.077966
      2          1           0       -2.066737    0.005311    0.058459
      3          1           0       -0.699876   -0.015780    0.786454
      4          8           0        1.235464   -0.001038    0.080089
      5          1           0        0.956418   -0.756910   -0.443724
      6          1           0        0.956518    0.771927   -0.418175
 ---------------------------------------------------------------------
 Rotational constants (GHZ):    216.3646900      9.6048695      9.6010915
 Standard basis: VSTO-6G (5D, 7F)
 There are    12 symmetry adapted basis functions of A   symmetry.
 Integral buffers will be    262144 words long.
 Regular integral format.
 Two-electron integral symmetry is turned off.
    12 basis functions,    72 primitive gaussians,    12 cartesian basis functions
     8 alpha electrons        8 beta electrons
       nuclear repulsion energy        46.0799711928 Hartrees.
 Do NDO integrals.
 One-electron integrals computed using PRISM.
 NBasis=    12 RedAO= F  NBF=    12
 NBsUse=    12 1.00D-04 NBFU=    12
 Initial guess read from the read-write file.
 B after Tr=     0.000000    0.000000    0.000000
         Rot=    1.000000    0.000000    0.000000    0.000000 Ang=   0.00 deg.
 Initial guess orbital symmetries:
       Occupied  (A) (A) (A) (A) (A) (A) (A) (A)
       Virtual   (A) (A) (A) (A)
 Requested convergence on RMS density matrix=1.00D-08 within 128 cycles.
 Requested convergence on MAX density matrix=1.00D-06.
 Requested convergence on             energy=1.00D-06.
 No special actions if energy rises.
 Overlap will be assumed to be unity.
 Keep J ints in memory in canonical form, NReq=875096.
 SCF Done:  E(RPM6) = -0.180642419199     A.U. after    8 cycles
             Convg  =    0.6853D-08             -V/T =  0.9761
 Calling FoFJK, ICntrl=      2127 FMM=F ISym2X=0 I1Cent= 0 IOpClX= 0 NMat=1 NMatS=1 NMatT=0.
 ***** Axes restored to original set *****
 -------------------------------------------------------------------
 Center     Atomic                   Forces (Hartrees/Bohr)
 Number     Number              X              Y              Z
 -------------------------------------------------------------------
      1        8           0.000051018    0.000011401    0.000075738
      2        1          -0.000000174   -0.000009698    0.000006676
      3        1          -0.000046112    0.000012292   -0.000084316
      4        8          -0.000004893   -0.000013156    0.000004057
      5        1           0.000011658   -0.000003331   -0.000006886
      6        1          -0.000011496    0.000002492    0.000004731
 -------------------------------------------------------------------
 Cartesian Forces:  Max     0.000084316 RMS     0.000032113

 GradGradGradGradGradGradGradGradGradGradGradGradGradGradGradGradGradGrad
 Berny optimization.
 Using GEDIIS/GDIIS optimizer.
 Internal  Forces:  Max     0.000096666 RMS     0.000027760
 Search for a local minimum.
 Step number  24 out of a maximum of   24
 All quantities printed in internal units (Hartrees-Bohrs-Radians)
 Mixed Optimization -- En-DIIS/RFO-DIIS
 Swaping is turned off.
 Update second derivatives using D2CorX and points   11   10   12   13   14
                                                     15   16   17   18   19
                                                     20   21   22   23   24
 DE= -9.30D-08 DEPred=-6.26D-08 R= 1.49D+00
 Trust test= 1.49D+00 RLast= 4.23D-03 DXMaxT set to 7.33D-01
 The second derivative matrix:
                          R1        R2        R3        R4        R5
           R1           0.24658
           R2          -0.03268   0.51838
           R3          -0.00209   0.01934   0.02440
           R4          -0.02325   0.00722   0.01098   0.57006
           R5          -0.01284  -0.00128   0.01161   0.00559   0.57231
           A1           0.03971   0.16003   0.01006   0.01408   0.01584
           A2           0.00476  -0.00212   0.03062   0.00216   0.00415
           A3           0.00638  -0.02911   0.00947   0.01385   0.00766
           A4          -0.00916   0.04220  -0.00021   0.02063   0.02073
           A5           0.00672   0.02665  -0.00094  -0.00017  -0.00092
           D1          -0.00295   0.02561   0.00190   0.00139   0.00410
           D2          -0.00035  -0.00729  -0.00064  -0.02153  -0.02409
           D3           0.00114   0.00290   0.00006   0.02100   0.02499
           D4          -0.00103  -0.00952   0.00366  -0.00304  -0.00329
                          A1        A2        A3        A4        A5
           A1           0.18012
           A2           0.00013   0.05309
           A3          -0.00373   0.00857   0.07055
           A4           0.01931  -0.00867  -0.05470   0.09149
           A5           0.01465  -0.00026  -0.00031   0.00915   0.10348
           D1           0.01020   0.00064   0.00916  -0.00848   0.00295
           D2          -0.00543  -0.00065  -0.00145  -0.00361  -0.03260
           D3           0.00368   0.00011   0.00154   0.00434   0.03168
           D4          -0.00143   0.00008  -0.00441  -0.00807  -0.00183
                          D1        D2        D3        D4
           D1           0.00707
           D2          -0.00068   0.01404
           D3           0.00125  -0.01272   0.01688
           D4          -0.00162   0.00186  -0.00189   0.02132
 ITU=  0  0  0  1  1  1  1  1  0  1  1  1  0 -1  1
     Eigenvalues ---    0.00128   0.00246   0.00406   0.01618   0.06812
     Eigenvalues ---    0.09887   0.11403   0.12178   0.26244   0.56360
     Eigenvalues ---    0.57208   0.60302
 En-DIIS/RFO-DIIS IScMMF=        0 using points:    24   23   22   21   20
 RFO step:  Lambda=-1.85625825D-08.
 DidBck=F Rises=F RFO-DIIS coefs:    2.40159   -1.50230   -0.20423    0.40360   -0.09866
 Iteration  1 RMS(Cart)=  0.00169587 RMS(Int)=  0.00000421
 Iteration  2 RMS(Cart)=  0.00000329 RMS(Int)=  0.00000226
 Iteration  3 RMS(Cart)=  0.00000000 RMS(Int)=  0.00000226
 Variable       Old X    -DE/DX   Delta X   Delta X   Delta X     New X
                                  (DIIS)     (GDIIS)  (Total)
    R1        1.79120   0.00000  -0.00015   0.00003  -0.00012   1.79109
    R2        1.82378  -0.00010  -0.00002  -0.00003  -0.00005   1.82373
    R3        3.89335  -0.00001  -0.00068  -0.00040  -0.00108   3.89226
    R4        1.81609   0.00000   0.00001  -0.00001   0.00001   1.81610
    R5        1.81606   0.00000   0.00003   0.00001   0.00004   1.81610
    A1        1.88696  -0.00001   0.00031  -0.00007   0.00024   1.88721
    A2        1.68126   0.00000   0.00002   0.00057   0.00059   1.68185
    A3        1.47916   0.00003   0.00078   0.00023   0.00101   1.48017
    A4        1.48153  -0.00001  -0.00011  -0.00014  -0.00025   1.48128
    A5        1.83976   0.00000   0.00015  -0.00008   0.00007   1.83984
    D1       -3.13266  -0.00002  -0.00346  -0.00156  -0.00503  -3.13769
    D2       -0.92723   0.00000   0.00013   0.00117   0.00129  -0.92594
    D3        0.92335   0.00000   0.00019   0.00108   0.00128   0.92462
    D4        1.45233  -0.00001   0.00010  -0.00007   0.00002   1.45235
         Item               Value     Threshold  Converged?
 Maximum Force            0.000097     0.000450     YES
 RMS     Force            0.000028     0.000300     YES
 Maximum Displacement     0.004059     0.001800     NO 
 RMS     Displacement     0.001695     0.001200     NO 
 Predicted change in Energy=-3.939822D-08
 Optimization stopped.
    -- Number of steps exceeded,  NStep=  24
    -- Flag reset to prevent archiving.
                           ----------------------------
                           ! Non-Optimized Parameters !
                           ! (Angstroms and Degrees)  !
 --------------------------                            --------------------------
 ! Name  Definition              Value          Derivative Info.                !
 --------------------------------------------------------------------------------
 ! R1    R(1,2)                  0.9478         -DE/DX =    0.0                 !
 ! R2    R(1,3)                  0.9651         -DE/DX =   -0.0001              !
 ! R3    R(3,4)                  2.0597         -DE/DX =    0.0                 !
 ! R4    R(4,5)                  0.961          -DE/DX =    0.0                 !
 ! R5    R(4,6)                  0.961          -DE/DX =    0.0                 !
 ! A1    A(2,1,3)              108.129          -DE/DX =    0.0                 !
 ! A2    A(1,3,4)               96.363          -DE/DX =    0.0                 !
 ! A3    A(3,4,5)               84.8075         -DE/DX =    0.0                 !
 ! A4    A(3,4,6)               84.8713         -DE/DX =    0.0                 !
 ! A5    A(5,4,6)              105.4149         -DE/DX =    0.0                 !
 ! D1    D(2,1,3,4)           -179.7761         -DE/DX =    0.0                 !
 ! D2    D(1,3,4,5)            -53.0525         -DE/DX =    0.0                 !
 ! D3    D(1,3,4,6)             52.977          -DE/DX =    0.0                 !
 ! D4    D(3,4,5,6)             83.2136         -DE/DX =    0.0                 !
 --------------------------------------------------------------------------------
 GradGradGradGradGradGradGradGradGradGradGradGradGradGradGradGradGradGrad

                          Input orientation:                          
 ---------------------------------------------------------------------
 Center     Atomic      Atomic             Coordinates (Angstroms)
 Number     Number       Type             X           Y           Z
 ---------------------------------------------------------------------
      1          8           0       -0.941869   -0.004695   -0.037992
      2          1           0       -1.875226    0.002251    0.127061
      3          1           0       -0.486578    0.006380    0.812896
      4          8           0        1.426084    0.003802    0.047110
      5          1           0        1.133438   -0.768311   -0.444610
      6          1           0        1.129538    0.760590   -0.465616
 ---------------------------------------------------------------------
                    Distance matrix (angstroms):
                    1          2          3          4          5
     1  O    0.000000
     2  H    0.947864   0.000000
     3  H    0.965103   1.548784   0.000000
     4  O    2.369497   3.302279   2.060270   0.000000
     5  H    2.248410   3.157948   2.192241   0.961036   0.000000
     6  H    2.249278   3.155147   2.194369   0.961018   1.529051
                    6
     6  H    0.000000
 Stoichiometry    H4O2
 Framework group  C1[X(H4O2)]
 Deg. of freedom    12
 Full point group                 C1      NOp   1
 Largest Abelian subgroup         C1      NOp   1
 Largest concise Abelian subgroup C1      NOp   1
                         Standard orientation:                         
 ---------------------------------------------------------------------
 Center     Atomic      Atomic             Coordinates (Angstroms)
 Number     Number       Type             X           Y           Z
 ---------------------------------------------------------------------
      1          8           0       -1.128755    0.000470   -0.077966
      2          1           0       -2.066737    0.005311    0.058459
      3          1           0       -0.699876   -0.015780    0.786454
      4          8           0        1.235464   -0.001038    0.080089
      5          1           0        0.956418   -0.756910   -0.443724
      6          1           0        0.956518    0.771927   -0.418175
 ---------------------------------------------------------------------
 Rotational constants (GHZ):    216.3646900      9.6048695      9.6010915

 **********************************************************************

            Population analysis using the SCF density.

 **********************************************************************

 Orbital symmetries:
       Occupied  (A) (A) (A) (A) (A) (A) (A) (A)
       Virtual   (A) (A) (A) (A)
 The electronic state is 1-A.
 Alpha  occ. eigenvalues --   -1.12571  -1.09275  -0.70442  -0.68075  -0.53527
 Alpha  occ. eigenvalues --   -0.50893  -0.44621  -0.43023
 Alpha virt. eigenvalues --    0.13582   0.17022   0.21876   0.22710
          Condensed to atoms (all electrons):
              1          2          3          4          5          6
     1  O    6.655405   0.000000   0.000000   0.000000   0.000000   0.000000
     2  H    0.000000   0.687165   0.000000   0.000000   0.000000   0.000000
     3  H    0.000000   0.000000   0.666780   0.000000   0.000000   0.000000
     4  O    0.000000   0.000000   0.000000   6.631083   0.000000   0.000000
     5  H    0.000000   0.000000   0.000000   0.000000   0.679780   0.000000
     6  H    0.000000   0.000000   0.000000   0.000000   0.000000   0.679787
 Mulliken atomic charges:
              1
     1  O   -0.655405
     2  H    0.312835
     3  H    0.333220
     4  O   -0.631083
     5  H    0.320220
     6  H    0.320213
 Sum of Mulliken atomic charges =   0.00000
 Mulliken charges with hydrogens summed into heavy atoms:
              1
     1  O   -0.009349
     4  O    0.009349
 Sum of Mulliken charges with hydrogens summed into heavy atoms =   0.00000
 Charge=              0.0000 electrons
 Dipole moment (field-independent basis, Debye):
    X=             -1.8569    Y=              0.0095    Z=              0.0185  Tot=              1.8570
 N-N= 4.607997119283D+01 E-N=-7.390963421166D+01  KE=-7.563038972206D+00


 THE WISE MAN HAS THE POWER TO REASON AWAY
 WHAT A FOOL BELIEVES.
                     - DOOBIE BROTHERS
 Error termination request processed by link 9999.
 Error termination via Lnk1e in C:\G09W\l9999.exe at Mon Apr 10 11:29:54 2023.
 Job cpu time:  0 days  0 hours  0 minutes 13.0 seconds.
 File lengths (MBytes):  RWF=      5 Int=      0 D2E=      0 Chk=      1 Scr=      1
