 Entering Link 1 = C:\G09W\l1.exe PID=     11312.
  
 Copyright (c) 1988,1990,1992,1993,1995,1998,2003,2009,2010,
            Gaussian, Inc.  All Rights Reserved.
  
 This is part of the Gaussian(R) 09 program.  It is based on
 the Gaussian(R) 03 system (copyright 2003, Gaussian, Inc.),
 the Gaussian(R) 98 system (copyright 1998, Gaussian, Inc.),
 the Gaussian(R) 94 system (copyright 1995, Gaussian, Inc.),
 the Gaussian 92(TM) system (copyright 1992, Gaussian, Inc.),
 the Gaussian 90(TM) system (copyright 1990, Gaussian, Inc.),
 the Gaussian 88(TM) system (copyright 1988, Gaussian, Inc.),
 the Gaussian 86(TM) system (copyright 1986, Carnegie Mellon
 University), and the Gaussian 82(TM) system (copyright 1983,
 Carnegie Mellon University). Gaussian is a federally registered
 trademark of Gaussian, Inc.
  
 This software contains proprietary and confidential information,
 including trade secrets, belonging to Gaussian, Inc.
  
 This software is provided under written license and may be
 used, copied, transmitted, or stored only in accord with that
 written license.
  
 The following legend is applicable only to US Government
 contracts under FAR:
  
                    RESTRICTED RIGHTS LEGEND
  
 Use, reproduction and disclosure by the US Government is
 subject to restrictions as set forth in subparagraphs (a)
 and (c) of the Commercial Computer Software - Restricted
 Rights clause in FAR 52.227-19.
  
 Gaussian, Inc.
 340 Quinnipiac St., Bldg. 40, Wallingford CT 06492
  
  
 ---------------------------------------------------------------
 Warning -- This program may not be used in any manner that
 competes with the business of Gaussian, Inc. or will provide
 assistance to any competitor of Gaussian, Inc.  The licensee
 of this program is prohibited from giving any competitor of
 Gaussian, Inc. access to this program.  By using this program,
 the user acknowledges that Gaussian, Inc. is engaged in the
 business of creating and licensing software in the field of
 computational chemistry and represents and warrants to the
 licensee that it is not a competitor of Gaussian, Inc. and that
 it will not use this program in any manner prohibited above.
 ---------------------------------------------------------------
  

 Cite this work as:
 Gaussian 09, Revision B.01,
 M. J. Frisch, G. W. Trucks, H. B. Schlegel, G. E. Scuseria, 
 M. A. Robb, J. R. Cheeseman, G. Scalmani, V. Barone, B. Mennucci, 
 G. A. Petersson, H. Nakatsuji, M. Caricato, X. Li, H. P. Hratchian, 
 A. F. Izmaylov, J. Bloino, G. Zheng, J. L. Sonnenberg, M. Hada, 
 M. Ehara, K. Toyota, R. Fukuda, J. Hasegawa, M. Ishida, T. Nakajima, 
 Y. Honda, O. Kitao, H. Nakai, T. Vreven, J. A. Montgomery, Jr., 
 J. E. Peralta, F. Ogliaro, M. Bearpark, J. J. Heyd, E. Brothers, 
 K. N. Kudin, V. N. Staroverov, T. Keith, R. Kobayashi, J. Normand, 
 K. Raghavachari, A. Rendell, J. C. Burant, S. S. Iyengar, J. Tomasi, 
 M. Cossi, N. Rega, J. M. Millam, M. Klene, J. E. Knox, J. B. Cross, 
 V. Bakken, C. Adamo, J. Jaramillo, R. Gomperts, R. E. Stratmann, 
 O. Yazyev, A. J. Austin, R. Cammi, C. Pomelli, J. W. Ochterski, 
 R. L. Martin, K. Morokuma, V. G. Zakrzewski, G. A. Voth, 
 P. Salvador, J. J. Dannenberg, S. Dapprich, A. D. Daniels, 
 O. Farkas, J. B. Foresman, J. V. Ortiz, J. Cioslowski, 
 and D. J. Fox, Gaussian, Inc., Wallingford CT, 2010.
 
 ******************************************
 Gaussian 09:  IA32W-G09RevB.01 12-Aug-2010
                10-Apr-2023 
 ******************************************
 ---------------------------
 # opt pm6 geom=connectivity
 ---------------------------
 1/14=-1,18=20,19=15,26=1,38=1,57=2/1,3;
 2/9=110,12=2,17=6,18=5,40=1/2;
 3/5=2,16=1,25=1,41=3900000,71=1/1,2,3;
 4/35=1/1;
 5/5=2,35=1,38=5/2;
 6/7=2,8=2,9=2,10=2,28=1/1;
 7//1,2,3,16;
 1/14=-1,18=20,19=15/3(2);
 2/9=110/2;
 99//99;
 2/9=110/2;
 3/5=2,16=1,25=1,41=3900000,71=1,135=20/1,2,3;
 4/5=5,16=3,35=1/1;
 5/5=2,35=1,38=5/2;
 7//1,2,3,16;
 1/14=-1,18=20,19=15/3(-5);
 2/9=110/2;
 6/7=2,8=2,9=2,10=2,19=2,28=1/1;
 99/9=1/99;
 -------------------
 Title Card Required
 -------------------
 Symbolic Z-matrix:
 Charge =  0 Multiplicity = 1
 O                    -1.12876   0.00047  -0.07797 
 H                    -2.06674   0.00531   0.05846 
 H                    -0.69988  -0.01578   0.78645 
 O                     1.23546  -0.00104   0.08009 
 H                     0.95642  -0.75691  -0.44372 
 H                     0.95652   0.77193  -0.41818 
 

 GradGradGradGradGradGradGradGradGradGradGradGradGradGradGradGradGradGrad
 Berny optimization.
 Initialization pass.
                           ----------------------------
                           !    Initial Parameters    !
                           ! (Angstroms and Degrees)  !
 --------------------------                            --------------------------
 ! Name  Definition              Value          Derivative Info.                !
 --------------------------------------------------------------------------------
 ! R1    R(1,2)                  0.9479         estimate D2E/DX2                !
 ! R2    R(1,3)                  0.9651         estimate D2E/DX2                !
 ! R3    R(1,4)                  2.3695         estimate D2E/DX2                !
 ! R4    R(1,5)                  2.2484         estimate D2E/DX2                !
 ! R5    R(1,6)                  2.2493         estimate D2E/DX2                !
 ! R6    R(3,4)                  2.0603         estimate D2E/DX2                !
 ! R7    R(4,5)                  0.961          estimate D2E/DX2                !
 ! R8    R(4,6)                  0.961          estimate D2E/DX2                !
 ! A1    A(2,1,3)              108.1151         estimate D2E/DX2                !
 ! A2    A(2,1,4)              167.8973         estimate D2E/DX2                !
 ! A3    A(2,1,5)              160.5383         estimate D2E/DX2                !
 ! A4    A(2,1,6)              159.6257         estimate D2E/DX2                !
 ! A5    A(3,1,5)               74.2112         estimate D2E/DX2                !
 ! A6    A(3,1,6)               74.2919         estimate D2E/DX2                !
 ! A7    A(5,1,6)               39.7493         estimate D2E/DX2                !
 ! A8    A(3,4,5)               84.7495         estimate D2E/DX2                !
 ! A9    A(3,4,6)               84.8855         estimate D2E/DX2                !
 ! A10   A(5,4,6)              105.4107         estimate D2E/DX2                !
 ! D1    D(2,1,4,3)              2.3209         estimate D2E/DX2                !
 ! D2    D(2,1,5,3)            -99.7655         estimate D2E/DX2                !
 ! D3    D(2,1,6,3)             99.8143         estimate D2E/DX2                !
 ! D4    D(2,1,5,4)           -148.9344         estimate D2E/DX2                !
 ! D5    D(2,1,6,4)            148.7572         estimate D2E/DX2                !
 ! D6    D(2,1,6,5)           -176.1478         estimate D2E/DX2                !
 ! D7    D(3,1,6,5)             84.038          estimate D2E/DX2                !
 --------------------------------------------------------------------------------
 Trust Radius=3.00D-01 FncErr=1.00D-07 GrdErr=1.00D-07
 Number of steps in this run=     35 maximum allowed number of steps=    100.
 GradGradGradGradGradGradGradGradGradGradGradGradGradGradGradGradGradGrad

                          Input orientation:                          
 ---------------------------------------------------------------------
 Center     Atomic      Atomic             Coordinates (Angstroms)
 Number     Number       Type             X           Y           Z
 ---------------------------------------------------------------------
      1          8           0       -1.128755    0.000470   -0.077966
      2          1           0       -2.066737    0.005311    0.058459
      3          1           0       -0.699876   -0.015780    0.786454
      4          8           0        1.235464   -0.001038    0.080089
      5          1           0        0.956418   -0.756910   -0.443724
      6          1           0        0.956518    0.771927   -0.418175
 ---------------------------------------------------------------------
                    Distance matrix (angstroms):
                    1          2          3          4          5
     1  O    0.000000
     2  H    0.947864   0.000000
     3  H    0.965103   1.548784   0.000000
     4  O    2.369497   3.302278   2.060269   0.000000
     5  H    2.248411   3.157948   2.192241   0.961035   0.000000
     6  H    2.249278   3.155147   2.194369   0.961017   1.529050
                    6
     6  H    0.000000
 Stoichiometry    H4O2
 Framework group  C1[X(H4O2)]
 Deg. of freedom    12
 Full point group                 C1      NOp   1
 Largest Abelian subgroup         C1      NOp   1
 Largest concise Abelian subgroup C1      NOp   1
                         Standard orientation:                         
 ---------------------------------------------------------------------
 Center     Atomic      Atomic             Coordinates (Angstroms)
 Number     Number       Type             X           Y           Z
 ---------------------------------------------------------------------
      1          8           0       -1.128755    0.000470   -0.077966
      2          1           0       -2.066737    0.005311    0.058459
      3          1           0       -0.699876   -0.015780    0.786454
      4          8           0        1.235464   -0.001038    0.080089
      5          1           0        0.956418   -0.756910   -0.443724
      6          1           0        0.956518    0.771927   -0.418175
 ---------------------------------------------------------------------
 Rotational constants (GHZ):    216.3649100      9.6048708      9.6010926
 Standard basis: VSTO-6G (5D, 7F)
 There are    12 symmetry adapted basis functions of A   symmetry.
 Integral buffers will be    262144 words long.
 Regular integral format.
 Two-electron integral symmetry is turned off.
    12 basis functions,    72 primitive gaussians,    12 cartesian basis functions
     8 alpha electrons        8 beta electrons
       nuclear repulsion energy        46.0799754924 Hartrees.
 Do NDO integrals.
 One-electron integrals computed using PRISM.
 NBasis=    12 RedAO= F  NBF=    12
 NBsUse=    12 1.00D-04 NBFU=    12
 Simple Huckel Guess.
 Initial guess orbital symmetries:
       Occupied  (A) (A) (A) (A) (A) (A) (A) (A)
       Virtual   (A) (A) (A) (A)
 The electronic state of the initial guess is 1-A.
 Requested convergence on RMS density matrix=1.00D-08 within 128 cycles.
 Requested convergence on MAX density matrix=1.00D-06.
 Requested convergence on             energy=1.00D-06.
 No special actions if energy rises.
 Overlap will be assumed to be unity.
 Keep J ints in memory in canonical form, NReq=875096.
 SCF Done:  E(RPM6) = -0.180642419239     A.U. after   12 cycles
             Convg  =    0.2221D-08             -V/T =  0.9761

 **********************************************************************

            Population analysis using the SCF density.

 **********************************************************************

 Orbital symmetries:
       Occupied  (A) (A) (A) (A) (A) (A) (A) (A)
       Virtual   (A) (A) (A) (A)
 The electronic state is 1-A.
 Alpha  occ. eigenvalues --   -1.12572  -1.09275  -0.70442  -0.68075  -0.53527
 Alpha  occ. eigenvalues --   -0.50893  -0.44621  -0.43023
 Alpha virt. eigenvalues --    0.13582   0.17022   0.21876   0.22710
          Condensed to atoms (all electrons):
              1          2          3          4          5          6
     1  O    6.655405   0.000000   0.000000   0.000000   0.000000   0.000000
     2  H    0.000000   0.687165   0.000000   0.000000   0.000000   0.000000
     3  H    0.000000   0.000000   0.666780   0.000000   0.000000   0.000000
     4  O    0.000000   0.000000   0.000000   6.631083   0.000000   0.000000
     5  H    0.000000   0.000000   0.000000   0.000000   0.679780   0.000000
     6  H    0.000000   0.000000   0.000000   0.000000   0.000000   0.679787
 Mulliken atomic charges:
              1
     1  O   -0.655405
     2  H    0.312835
     3  H    0.333220
     4  O   -0.631083
     5  H    0.320220
     6  H    0.320213
 Sum of Mulliken atomic charges =   0.00000
 Mulliken charges with hydrogens summed into heavy atoms:
              1
     1  O   -0.009349
     4  O    0.009349
 Sum of Mulliken charges with hydrogens summed into heavy atoms =   0.00000
 Charge=              0.0000 electrons
 Dipole moment (field-independent basis, Debye):
    X=             -1.8569    Y=              0.0095    Z=              0.0185  Tot=              1.8570
 N-N= 4.607997549243D+01 E-N=-7.390963819957D+01  KE=-7.563040458408D+00
 Calling FoFJK, ICntrl=      2127 FMM=F ISym2X=0 I1Cent= 0 IOpClX= 0 NMat=1 NMatS=1 NMatT=0.
 ***** Axes restored to original set *****
 -------------------------------------------------------------------
 Center     Atomic                   Forces (Hartrees/Bohr)
 Number     Number              X              Y              Z
 -------------------------------------------------------------------
      1        8           0.000048896    0.000008926    0.000077457
      2        1          -0.000000644   -0.000009896    0.000006416
      3        1          -0.000043448    0.000014998   -0.000085196
      4        8          -0.000004896   -0.000013609    0.000003745
      5        1           0.000011850   -0.000003142   -0.000006635
      6        1          -0.000011757    0.000002722    0.000004213
 -------------------------------------------------------------------
 Cartesian Forces:  Max     0.000085196 RMS     0.000032112

 GradGradGradGradGradGradGradGradGradGradGradGradGradGradGradGradGradGrad
 Berny optimization.
 Internal  Forces:  Max     0.000094255 RMS     0.000019490
 Search for a local minimum.
 Step number   1 out of a maximum of   35
 All quantities printed in internal units (Hartrees-Bohrs-Radians)
 Mixed Optimization -- En-DIIS/RFO-DIIS
 Second derivative matrix not updated -- first step.
 ITU=  0
     Eigenvalues ---    0.00840   0.01066   0.02361   0.03629   0.06287
     Eigenvalues ---    0.07235   0.11922   0.12839   0.46974   0.50396
     Eigenvalues ---    0.53373   0.58168
 RFO step:  Lambda=-2.54371960D-08 EMin= 8.40164927D-03
 Linear search not attempted -- first point.
 Iteration  1 RMS(Cart)=  0.00007294 RMS(Int)=  0.00000001
 Iteration  2 RMS(Cart)=  0.00000000 RMS(Int)=  0.00000000
 Variable       Old X    -DE/DX   Delta X   Delta X   Delta X     New X
                                 (Linear)    (Quad)   (Total)
    R1        1.79120   0.00000   0.00000   0.00000   0.00000   1.79121
    R2        1.82378  -0.00009   0.00000  -0.00018  -0.00018   1.82360
    R3        4.47770  -0.00001   0.00000  -0.00006  -0.00006   4.47764
    R4        4.24888   0.00001   0.00000   0.00008   0.00008   4.24896
    R5        4.25052   0.00000   0.00000  -0.00008  -0.00008   4.25044
    R6        3.89334   0.00000   0.00000  -0.00005  -0.00005   3.89330
    R7        1.81609   0.00000   0.00000   0.00000   0.00000   1.81609
    R8        1.81606   0.00001   0.00000   0.00001   0.00001   1.81607
    A1        1.88696   0.00000   0.00000  -0.00003  -0.00003   1.88694
    A2        2.93036   0.00000   0.00000  -0.00003  -0.00003   2.93033
    A3        2.80192   0.00000   0.00000  -0.00004  -0.00004   2.80188
    A4        2.78599   0.00000   0.00000   0.00004   0.00004   2.78603
    A5        1.29523   0.00000   0.00000   0.00007   0.00007   1.29530
    A6        1.29664   0.00000   0.00000  -0.00007  -0.00007   1.29657
    A7        0.69376   0.00000   0.00000   0.00000   0.00000   0.69376
    A8        1.47916   0.00000   0.00000   0.00013   0.00013   1.47929
    A9        1.48153  -0.00001   0.00000  -0.00011  -0.00011   1.48142
   A10        1.83976   0.00000   0.00000   0.00001   0.00001   1.83977
    D1        0.04051   0.00000   0.00000  -0.00045  -0.00045   0.04006
    D2       -1.74124  -0.00001   0.00000  -0.00011  -0.00011  -1.74135
    D3        1.74209   0.00000   0.00000  -0.00025  -0.00025   1.74184
    D4       -2.59940   0.00000   0.00000   0.00010   0.00010  -2.59930
    D5        2.59630   0.00000   0.00000  -0.00007  -0.00007   2.59624
    D6       -3.07436   0.00000   0.00000  -0.00006  -0.00006  -3.07442
    D7        1.46674   0.00000   0.00000   0.00019   0.00019   1.46693
         Item               Value     Threshold  Converged?
 Maximum Force            0.000094     0.000450     YES
 RMS     Force            0.000019     0.000300     YES
 Maximum Displacement     0.000224     0.001800     YES
 RMS     Displacement     0.000073     0.001200     YES
 Predicted change in Energy=-1.271875D-08
 Optimization completed.
    -- Stationary point found.
                           ----------------------------
                           !   Optimized Parameters   !
                           ! (Angstroms and Degrees)  !
 --------------------------                            --------------------------
 ! Name  Definition              Value          Derivative Info.                !
 --------------------------------------------------------------------------------
 ! R1    R(1,2)                  0.9479         -DE/DX =    0.0                 !
 ! R2    R(1,3)                  0.9651         -DE/DX =   -0.0001              !
 ! R3    R(1,4)                  2.3695         -DE/DX =    0.0                 !
 ! R4    R(1,5)                  2.2484         -DE/DX =    0.0                 !
 ! R5    R(1,6)                  2.2493         -DE/DX =    0.0                 !
 ! R6    R(3,4)                  2.0603         -DE/DX =    0.0                 !
 ! R7    R(4,5)                  0.961          -DE/DX =    0.0                 !
 ! R8    R(4,6)                  0.961          -DE/DX =    0.0                 !
 ! A1    A(2,1,3)              108.1151         -DE/DX =    0.0                 !
 ! A2    A(2,1,4)              167.8973         -DE/DX =    0.0                 !
 ! A3    A(2,1,5)              160.5383         -DE/DX =    0.0                 !
 ! A4    A(2,1,6)              159.6257         -DE/DX =    0.0                 !
 ! A5    A(3,1,5)               74.2112         -DE/DX =    0.0                 !
 ! A6    A(3,1,6)               74.2919         -DE/DX =    0.0                 !
 ! A7    A(5,1,6)               39.7493         -DE/DX =    0.0                 !
 ! A8    A(3,4,5)               84.7495         -DE/DX =    0.0                 !
 ! A9    A(3,4,6)               84.8855         -DE/DX =    0.0                 !
 ! A10   A(5,4,6)              105.4107         -DE/DX =    0.0                 !
 ! D1    D(2,1,4,3)              2.3209         -DE/DX =    0.0                 !
 ! D2    D(2,1,5,3)            -99.7655         -DE/DX =    0.0                 !
 ! D3    D(2,1,6,3)             99.8143         -DE/DX =    0.0                 !
 ! D4    D(2,1,5,4)           -148.9344         -DE/DX =    0.0                 !
 ! D5    D(2,1,6,4)            148.7572         -DE/DX =    0.0                 !
 ! D6    D(2,1,6,5)           -176.1478         -DE/DX =    0.0                 !
 ! D7    D(3,1,6,5)             84.038          -DE/DX =    0.0                 !
 --------------------------------------------------------------------------------
 GradGradGradGradGradGradGradGradGradGradGradGradGradGradGradGradGradGrad

                          Input orientation:                          
 ---------------------------------------------------------------------
 Center     Atomic      Atomic             Coordinates (Angstroms)
 Number     Number       Type             X           Y           Z
 ---------------------------------------------------------------------
      1          8           0       -1.128755    0.000470   -0.077966
      2          1           0       -2.066737    0.005311    0.058459
      3          1           0       -0.699876   -0.015780    0.786454
      4          8           0        1.235464   -0.001038    0.080089
      5          1           0        0.956418   -0.756910   -0.443724
      6          1           0        0.956518    0.771927   -0.418175
 ---------------------------------------------------------------------
                    Distance matrix (angstroms):
                    1          2          3          4          5
     1  O    0.000000
     2  H    0.947864   0.000000
     3  H    0.965103   1.548784   0.000000
     4  O    2.369497   3.302278   2.060269   0.000000
     5  H    2.248411   3.157948   2.192241   0.961035   0.000000
     6  H    2.249278   3.155147   2.194369   0.961017   1.529050
                    6
     6  H    0.000000
 Stoichiometry    H4O2
 Framework group  C1[X(H4O2)]
 Deg. of freedom    12
 Full point group                 C1      NOp   1
 Largest Abelian subgroup         C1      NOp   1
 Largest concise Abelian subgroup C1      NOp   1
                         Standard orientation:                         
 ---------------------------------------------------------------------
 Center     Atomic      Atomic             Coordinates (Angstroms)
 Number     Number       Type             X           Y           Z
 ---------------------------------------------------------------------
      1          8           0       -1.128755    0.000470   -0.077966
      2          1           0       -2.066737    0.005311    0.058459
      3          1           0       -0.699876   -0.015780    0.786454
      4          8           0        1.235464   -0.001038    0.080089
      5          1           0        0.956418   -0.756910   -0.443724
      6          1           0        0.956518    0.771927   -0.418175
 ---------------------------------------------------------------------
 Rotational constants (GHZ):    216.3649100      9.6048708      9.6010926
 1|1|UNPC-PC105322|FOpt|RPM6|ZDO|H4O2|CHAPMANNAT|10-Apr-2023|0||# opt p
 m6 geom=connectivity||Title Card Required||0,1|O,-1.128755,0.00047,-0.
 077966|H,-2.066737,0.005311,0.058459|H,-0.699876,-0.01578,0.786454|O,1
 .235464,-0.001038,0.080089|H,0.956418,-0.75691,-0.443724|H,0.956518,0.
 771927,-0.418175||Version=IA32W-G09RevB.01|State=1-A|HF=-0.1806424|RMS
 D=2.221e-009|RMSF=3.211e-005|Dipole=-0.7305625,0.0037338,0.007274|PG=C
 01 [X(H4O2)]||@


 A FOOL CAN ASK MORE QUESTIONS THAN
 A WISE MAN CAN ANSWER.
 Job cpu time:  0 days  0 hours  0 minutes  1.0 seconds.
 File lengths (MBytes):  RWF=      5 Int=      0 D2E=      0 Chk=      1 Scr=      1
 Normal termination of Gaussian 09 at Mon Apr 10 11:32:52 2023.
