 Entering Link 1 = C:\G09W\l1.exe PID=      6932.
  
 Copyright (c) 1988,1990,1992,1993,1995,1998,2003,2009,2010,
            Gaussian, Inc.  All Rights Reserved.
  
 This is part of the Gaussian(R) 09 program.  It is based on
 the Gaussian(R) 03 system (copyright 2003, Gaussian, Inc.),
 the Gaussian(R) 98 system (copyright 1998, Gaussian, Inc.),
 the Gaussian(R) 94 system (copyright 1995, Gaussian, Inc.),
 the Gaussian 92(TM) system (copyright 1992, Gaussian, Inc.),
 the Gaussian 90(TM) system (copyright 1990, Gaussian, Inc.),
 the Gaussian 88(TM) system (copyright 1988, Gaussian, Inc.),
 the Gaussian 86(TM) system (copyright 1986, Carnegie Mellon
 University), and the Gaussian 82(TM) system (copyright 1983,
 Carnegie Mellon University). Gaussian is a federally registered
 trademark of Gaussian, Inc.
  
 This software contains proprietary and confidential information,
 including trade secrets, belonging to Gaussian, Inc.
  
 This software is provided under written license and may be
 used, copied, transmitted, or stored only in accord with that
 written license.
  
 The following legend is applicable only to US Government
 contracts under FAR:
  
                    RESTRICTED RIGHTS LEGEND
  
 Use, reproduction and disclosure by the US Government is
 subject to restrictions as set forth in subparagraphs (a)
 and (c) of the Commercial Computer Software - Restricted
 Rights clause in FAR 52.227-19.
  
 Gaussian, Inc.
 340 Quinnipiac St., Bldg. 40, Wallingford CT 06492
  
  
 ---------------------------------------------------------------
 Warning -- This program may not be used in any manner that
 competes with the business of Gaussian, Inc. or will provide
 assistance to any competitor of Gaussian, Inc.  The licensee
 of this program is prohibited from giving any competitor of
 Gaussian, Inc. access to this program.  By using this program,
 the user acknowledges that Gaussian, Inc. is engaged in the
 business of creating and licensing software in the field of
 computational chemistry and represents and warrants to the
 licensee that it is not a competitor of Gaussian, Inc. and that
 it will not use this program in any manner prohibited above.
 ---------------------------------------------------------------
  

 Cite this work as:
 Gaussian 09, Revision B.01,
 M. J. Frisch, G. W. Trucks, H. B. Schlegel, G. E. Scuseria, 
 M. A. Robb, J. R. Cheeseman, G. Scalmani, V. Barone, B. Mennucci, 
 G. A. Petersson, H. Nakatsuji, M. Caricato, X. Li, H. P. Hratchian, 
 A. F. Izmaylov, J. Bloino, G. Zheng, J. L. Sonnenberg, M. Hada, 
 M. Ehara, K. Toyota, R. Fukuda, J. Hasegawa, M. Ishida, T. Nakajima, 
 Y. Honda, O. Kitao, H. Nakai, T. Vreven, J. A. Montgomery, Jr., 
 J. E. Peralta, F. Ogliaro, M. Bearpark, J. J. Heyd, E. Brothers, 
 K. N. Kudin, V. N. Staroverov, T. Keith, R. Kobayashi, J. Normand, 
 K. Raghavachari, A. Rendell, J. C. Burant, S. S. Iyengar, J. Tomasi, 
 M. Cossi, N. Rega, J. M. Millam, M. Klene, J. E. Knox, J. B. Cross, 
 V. Bakken, C. Adamo, J. Jaramillo, R. Gomperts, R. E. Stratmann, 
 O. Yazyev, A. J. Austin, R. Cammi, C. Pomelli, J. W. Ochterski, 
 R. L. Martin, K. Morokuma, V. G. Zakrzewski, G. A. Voth, 
 P. Salvador, J. J. Dannenberg, S. Dapprich, A. D. Daniels, 
 O. Farkas, J. B. Foresman, J. V. Ortiz, J. Cioslowski, 
 and D. J. Fox, Gaussian, Inc., Wallingford CT, 2010.
 
 ******************************************
 Gaussian 09:  IA32W-G09RevB.01 12-Aug-2010
                07-Apr-2023 
 ******************************************
 %chk=N:\Exercise_6_H2O\H2O.chk
 ---------------------------
 # opt uff geom=connectivity
 ---------------------------
 1/6=10,10=10,14=-1,18=4000020,19=15,38=1,56=1,57=2,64=2/1,3;
 2/9=110,12=2,17=6,18=5,40=1/2;
 3/5=30,11=9,16=1,25=1,30=1,41=10200000,43=2,71=1/1;
 4/20=10,22=1001,24=3/2;
 7/44=-1/16;
 1/6=10,10=10,14=-1,18=4000020,19=15,64=2/3(2);
 2/9=110/2;
 99//99;
 2/9=110/2;
 3/5=30,11=9,16=1,25=1,30=1,41=10200000,43=2,71=1/1;
 4/16=2,20=10,22=1001,24=3/2;
 7/44=-1/16;
 1/6=10,10=10,14=-1,18=4000020,19=15,64=2/3(-4);
 2/9=110/2;
 99//99;
 -------------------
 Title Card Required
 -------------------
 Symbolic Z-matrix:
 Charge =  0 Multiplicity = 1
 O-O_3--0.834000      -6.4086    2.39785   0. 
 H-H_-0.417000        -5.4486    2.39785   0. 
 H-H_-0.417000        -6.72906   3.30279   0. 
 O-O_3--0.834000      -5.54839  -0.76344   0. 
 H-H_-0.417000        -4.58839  -0.76344   0. 
 H-H_-0.417000        -5.86884   0.14149   0. 
 O-O_3--0.834000      -0.30108   2.09677   0. 
 H-H_-0.417000         0.65892   2.09677   0. 
 H-H_-0.417000        -0.62153   3.00171   0. 
 O-O_3--0.834000      -3.13978   3.73118   0. 
 H-H_-0.417000        -2.17978   3.73118   0. 
 H-H_-0.417000        -3.46024   4.63612   0. 
 O-O_3--0.834000      -1.29032  -2.52688   0. 
 H-H_-0.417000        -0.33032  -2.52688   0. 
 H-H_-0.417000        -1.61078  -1.62195   0. 
 O-O_3--0.834000      -0.27957  -0.91398   0. 
 H-H_-0.417000         0.68043  -0.91398   0. 
 H-H_-0.417000        -0.60002  -0.00904   0. 
 O-O_3--0.834000       1.63441   1.19355   0. 
 H-H_-0.417000         2.59441   1.19355   0. 
 H-H_-0.417000         1.31395   2.09848   0. 
 O-O_3--0.834000      -3.09677   1.17204   0. 
 H-H_-0.417000        -2.13677   1.17204   0. 
 H-H_-0.417000        -3.41723   2.07698   0. 
 
 Include all MM classes

 MM sanity checks:
 All charges sum to:                0.00000000
 Charges of atoms sum to:           0.00000000
 MMInit generated parameter data with length LenPar=        1142.

 GradGradGradGradGradGradGradGradGradGradGradGradGradGradGradGradGradGrad
 Berny optimization.
 Initialization pass.
 No Z-matrix variables, so optimization will use Cartesian coordinates.
 Trust Radius=1.00D-01 FncErr=1.00D-07 GrdErr=1.00D-07
 Number of steps in this run=      2 maximum allowed number of steps=      2.
 GradGradGradGradGradGradGradGradGradGradGradGradGradGradGradGradGradGrad

                          Input orientation:                          
 ---------------------------------------------------------------------
 Center     Atomic      Atomic             Coordinates (Angstroms)
 Number     Number       Type             X           Y           Z
 ---------------------------------------------------------------------
      1          8    10081003       -6.408602    2.397849    0.000000
      2          1    10011000       -5.448602    2.397849    0.000000
      3          1    10011000       -6.729056    3.302785    0.000000
      4          8    10081003       -5.548387   -0.763441    0.000000
      5          1    10011000       -4.588387   -0.763441    0.000000
      6          1    10011000       -5.868841    0.141495    0.000000
      7          8    10081003       -0.301075    2.096774    0.000000
      8          1    10011000        0.658925    2.096774    0.000000
      9          1    10011000       -0.621530    3.001710    0.000000
     10          8    10081003       -3.139785    3.731183    0.000000
     11          1    10011000       -2.179785    3.731183    0.000000
     12          1    10011000       -3.460239    4.636119    0.000000
     13          8    10081003       -1.290323   -2.526882    0.000000
     14          1    10011000       -0.330323   -2.526882    0.000000
     15          1    10011000       -1.610777   -1.621946    0.000000
     16          8    10081003       -0.279570   -0.913978    0.000000
     17          1    10011000        0.680430   -0.913978    0.000000
     18          1    10011000       -0.600024   -0.009043    0.000000
     19          8    10081003        1.634409    1.193548    0.000000
     20          1    10011000        2.594409    1.193548    0.000000
     21          1    10011000        1.313954    2.098484    0.000000
     22          8    10081003       -3.096774    1.172043    0.000000
     23          1    10011000       -2.136774    1.172043    0.000000
     24          1    10011000       -3.417229    2.076979    0.000000
 ---------------------------------------------------------------------
                    Distance matrix (angstroms):
                    1          2          3          4          5
     1  O    0.000000
     2  H    0.960000   0.000000
     3  H    0.960000   1.567952   0.000000
     4  O    3.276237   3.162865   4.234168   0.000000
     5  H    3.647868   3.276237   4.595287   0.960000   0.000000
     6  H    2.320017   2.295155   3.276237   0.960000   1.567952
     7  O    6.114943   5.156324   6.540138   5.976212   5.153821
     8  H    7.073937   6.114943   7.485768   6.834585   5.976212
     9  H    5.818492   4.864697   6.114943   6.200829   5.469215
    10  O    3.530289   2.666161   3.614747   5.099314   4.722297
    11  H    4.434036   3.530289   4.569398   5.616860   5.099314
    12  H    3.701714   2.993899   3.530289   5.789266   5.516154
    13  O    7.102799   6.445484   7.972756   4.608778   3.739913
    14  H    7.822944   7.102799   8.656143   5.507987   4.608778
    15  H    6.259223   5.557666   7.102799   4.030112   3.098902
    16  O    6.966580   6.138982   7.705646   5.270967   4.311446
    17  H    7.824486   6.966580   8.525350   6.230636   5.270967
    18  H    6.287504   5.413117   6.966580   5.005538   4.059083
    19  O    8.132672   7.184663   8.625336   7.444619   6.523265
    20  H    9.083201   8.132672   9.559073   8.374660   7.444619
    21  H    7.728356   6.769179   8.132672   7.435209   6.559592
    22  O    3.531403   2.652112   4.211121   3.123540   2.443564
    23  H    4.444223   3.531403   5.062521   3.922397   3.123540
    24  H    3.008533   2.056559   3.531403   3.551031   3.072392
                    6          7          8          9         10
     6  H    0.000000
     7  O    5.901113   0.000000
     8  H    6.814312   0.960000   0.000000
     9  H    5.976212   0.960000   1.567952   0.000000
    10  O    4.509280   3.275601   4.135394   2.621782   0.000000
    11  H    5.147329   2.490149   3.275601   1.720549   0.960000
    12  H    5.099314   4.053219   4.838986   3.275601   0.960000
    13  O    5.299346   4.728298   5.017744   5.568897   6.525633
    14  H    6.147798   4.623748   4.728298   5.536256   6.859770
    15  H    4.608778   3.942613   4.356653   4.728298   5.567212
    16  O    5.688056   3.010829   3.153633   3.930592   5.455122
    17  H    6.633776   3.166699   3.010829   4.126465   6.014280
    18  H    5.270967   2.126931   2.453450   3.010829   4.521025
    19  O    7.576647   2.135864   1.329431   2.891143   5.406710
    20  H    8.528389   3.033091   2.135864   3.689405   6.270611
    21  H    7.444619   1.615030   0.655031   2.135864   4.743574
    22  O    2.957429   2.944666   3.867868   3.078070   2.559501
    23  H    3.871738   2.055461   2.944666   2.375636   2.748677
    24  H    3.123540   3.116216   4.076201   2.944666   1.677309
                   11         12         13         14         15
    11  H    0.000000
    12  H    1.567952   0.000000
    13  O    6.320958   7.484458   0.000000
    14  H    6.525633   7.816966   0.960000   0.000000
    15  H    5.383285   6.525633   0.960000   1.567952   0.000000
    16  O    5.018799   6.396893   1.903438   1.613702   1.507757
    17  H    5.455122   6.924502   2.546630   1.903438   2.398093
    18  H    4.060164   5.455122   2.610752   2.532243   1.903438
    19  O    4.581229   6.148718   4.732404   4.207347   4.296305
    20  H    5.406710   6.964916   5.378916   4.732404   5.060691
    21  H    3.856412   5.406710   5.308132   4.908936   4.732404
    22  O    2.718467   3.483092   4.116468   4.619015   3.164579
    23  H    2.559501   3.708285   3.794539   4.116468   2.843070
    24  H    2.065831   2.559501   5.071416   5.542970   4.116468
                   16         17         18         19         20
    16  O    0.000000
    17  H    0.960000   0.000000
    18  H    0.960000   1.567952   0.000000
    19  O    2.846925   2.313384   2.537502   0.000000
    20  H    3.563905   2.846925   3.413302   0.960000   0.000000
    21  H    3.407969   3.078357   2.846925   0.960000   1.567952
    22  O    3.505442   4.314946   2.762014   4.731231   5.691223
    23  H    2.792972   3.505442   1.938185   3.771244   4.731231
    24  H    4.334827   5.073129   3.505442   5.128303   6.076202
                   21         22         23         24
    21  H    0.000000
    22  O    4.506974   0.000000
    23  H    3.572928   0.960000   0.000000
    24  H    4.731231   0.960000   1.567952   0.000000
 Stoichiometry    H16O8
 Framework group  CS[SG(H16O8)]
 Deg. of freedom    45
 Full point group                 CS      NOp   2
 Largest Abelian subgroup         CS      NOp   2
 Largest concise Abelian subgroup C1      NOp   1
                         Standard orientation:                         
 ---------------------------------------------------------------------
 Center     Atomic      Atomic             Coordinates (Angstroms)
 Number     Number       Type             X           Y           Z
 ---------------------------------------------------------------------
      1          8    10081003        4.433482   -0.007458    0.000000
      2          1    10011000        3.531349    0.320802    0.000000
      3          1    10011000        5.044053    0.733354    0.000000
      4          8    10081003        2.544153   -2.684053    0.000000
      5          1    10011000        1.642019   -2.355792    0.000000
      6          1    10011000        3.154723   -1.943240    0.000000
      7          8    10081003       -1.408846    1.798012    0.000000
      8          1    10011000       -2.310980    2.126273    0.000000
      9          1    10011000       -0.798276    2.538825    0.000000
     10          8    10081003        1.817620    2.363239    0.000000
     11          1    10011000        0.915486    2.691499    0.000000
     12          1    10011000        2.428190    3.104051    0.000000
     13          8    10081003       -2.060234   -2.885203    0.000000
     14          1    10011000       -2.962367   -2.556942    0.000000
     15          1    10011000       -1.449663   -2.144390    0.000000
     16          8    10081003       -2.458547   -1.023906    0.000000
     17          1    10011000       -3.360681   -0.695646    0.000000
     18          1    10011000       -1.847976   -0.283094    0.000000
     19          8    10081003       -3.536511    1.611046    0.000000
     20          1    10011000       -4.438645    1.939307    0.000000
     21          1    10011000       -2.925941    2.351859    0.000000
     22          8    10081003        0.902134   -0.026935    0.000000
     23          1    10011000        0.000000    0.301325    0.000000
     24          1    10011000        1.512704    0.713877    0.000000
 ---------------------------------------------------------------------
 Rotational constants (GHZ):      1.0028644      0.5034664      0.3351910
 Standard basis: Dummy (5D, 7F)
 There are    24 symmetry adapted basis functions of A'  symmetry.
 There are     0 symmetry adapted basis functions of A"  symmetry.
 Integral buffers will be    262144 words long.
 Raffenetti 1 integral format.
 Two-electron integral symmetry is turned on.
    24 basis functions,    24 primitive gaussians,    24 cartesian basis functions
    16 alpha electrons       16 beta electrons
       nuclear repulsion energy        81.2877469135 Hartrees.
 NAtoms=   24 NActive=   24 NUniq=   24 SFac= 1.00D+00 NAtFMM=   50 NAOKFM=F Big=F
 UFF calculation of energy and first derivatives.
 NRF= 0 NRA=   0 NVA=  24 HaveQM=F NVQ=       0
 Convergence limit is  0.750E-04 MaxStp= 10000 StMxLn= 1.00D-04 StpMin= 1.00D-06.
 Convergence criteria             0.00011250 0.00007500 0.00045000 0.00030000
  Step  NS  ND Rises OKQ   Scale  Max. Force  RMS Force Max. Disp.  RMS Disp.     Energy   Flag
     1   0   0   F    T  1.00D+00******************************************** 3755.2253991 ----
     2   0   0   T    F  2.71D-01********************************************************* ----
     3   0   0   T    F  3.13D-01********************************************************* ----
     4   0   0   T    F  3.27D-01********************************************************* ----
     5   0   0   T    F  3.31D-01*********************************55.62028431************* ----
     6   0   0   T    F  3.33D-01*********************************18.5046069554626.4602255 ----
     7   0   0   T    F  3.33D-01**********************34.76062847 6.16961457 5824.7096378 ----
     8   0   0   F    F -6.66D-01**********************23.14363315 4.10773057  577.8576808 ----
     9   0   0   T    F  6.24D-01**********************14.43979628 2.5628989370042.6814677 ----
    10   0   0   F    F  1.21D+00**********************17.44399838 3.09611050  174.4609792 ----
    11   0   0   F    F  5.50D-02********************** 0.95974579 0.17034392    2.0719223 ----
    12   0   0   T    F  3.91D-01********************** 0.37510804 0.06657739    2.1437124 ----
    13   0   0   F    F  1.73D-02********************** 0.00649549 0.00115288    1.9258347 ----
    14   0   0   F    F -8.15D-02********************** 0.00052946 0.00009397    1.9258070 ---+
    15   0   0   F    T  1.00D+00 3.34759760 0.56814377 3.34759763 0.56814377    1.9258068 ----
    16   0   0   T    F  6.20D-01 3.34759760 0.56814377 2.07477465 0.35212425   58.8844510 ----
    17   0   0   F    F -5.82D-01 3.34759760 0.56814377 1.20704111 0.20485523    0.9412328 ----
    18   0   0   F    F -5.73D-01 3.34759760 0.56814377 0.69153165 0.11736458    0.8233886 ----
    19   0   0   F    F  6.36D-02 3.34759760 0.56814377 0.04397645 0.00746355    0.7425981 ----
    20   0   0   F    F -3.18D-01 3.34759760 0.56814377 0.01397140 0.00237118    0.7422849 ----
    21   0   0   F    T  3.02D+00 0.37373805 0.08824286 1.15632387 0.26972596    0.7421918 ----
    22   0   0   T    F  3.68D-01 0.37373805 0.08824286 0.42552268 0.09925810    1.2810445 ----
    23   0   0   F    F -3.97D-03 0.37373805 0.08824286 0.00168857 0.00039388    0.4424967 ----
    24   0   0   F    T  1.80D+00 0.17799532 0.04798039 0.39150796 0.09886422    0.4424924 ----
    25   0   0   F    F  2.00D-01 0.17799532 0.04798039 0.07831217 0.01977551    0.2668834 ----
    26   0   0   F    F  2.08D-03 0.17799532 0.04798039 0.00016302 0.00004117    0.2617713 --++
    27   0   0   F    T  1.80D+00 0.22499984 0.04625604 0.43119086 0.11868091    0.2617713 ----
    28   0   0   F    F  4.97D-02 0.22499984 0.04625604 0.02142920 0.00589817    0.1214005 ----
    29   0   0   F    F -5.44D-02 0.22499984 0.04625604 0.00116536 0.00032075    0.1211207 ----
    30   0   0   F    T  3.95D+00 0.08057220 0.02528427 0.52743968 0.12425832    0.1211198 ----
    31   0   0   T    F  3.42D-01 0.08057220 0.02528427 0.18061815 0.04255142    0.1968872 ----
    32   0   0   F    F  1.16D-03 0.08057220 0.02528427 0.00020864 0.00004915    0.0902530 --++
    33   0   0   F    T  3.03D+00 0.03556891 0.01178473 0.13106357 0.04260058    0.0902529 ----
    34   0   0   F    F -2.03D-01 0.03556891 0.01178473 0.02658098 0.00863981    0.0789190 ----
    35   0   0   F    T  1.75D+00 0.05378485 0.01218962 0.11880003 0.03396076    0.0781258 ----
    36   0   0   F    F  3.64D-01 0.05378485 0.01218962 0.04328097 0.01237251    0.0664705 ----
    37   0   0   F    F -3.12D-03 0.05378485 0.01218962 0.00013503 0.00003860    0.0656014 --++
    38   0   0   F    T  2.85D+00 0.03017767 0.00988242 0.16710538 0.04629467    0.0656014 ----
    39   0   0   F    F -2.15D-01 0.03017767 0.00988242 0.03590890 0.00994816    0.0584227 ----
    40   0   0   F    T  2.11D+00 0.03209336 0.00904104 0.11290174 0.03634651    0.0578692 ----
    41   0   0   F    F  6.69D-01 0.03209336 0.00904104 0.07547964 0.02429920    0.0492908 ----
    42   0   0   F    F -5.65D-03 0.03209336 0.00904104 0.00042609 0.00013717    0.0477008 --++
    43   0   0   F    T  1.93D+00 0.04107607 0.01136843 0.17667730 0.06050854    0.0477008 ----
    44   0   0   F    F  2.23D-01 0.04107607 0.01136843 0.03943810 0.01350678    0.0370940 ----
    45   0   0   F    F -6.82D-03 0.04107607 0.01136843 0.00026881 0.00009206    0.0367329 --++
    46   0   0   F    T  3.44D+00 0.02932650 0.00869265 0.22839002 0.07392326    0.0367329 ----
    47   0   0   F    F -4.42D-01 0.02932650 0.00869265 0.10088199 0.03265259    0.0347435 ----
    48   0   0   F    T  2.40D+00 0.02690120 0.00726774 0.11889020 0.04127067    0.0315296 ----
    49   0   0   F    F  6.67D-02 0.02690120 0.00726774 0.00792723 0.00275180    0.0267567 ----
    50   0   0   F    T  2.14D+00 0.02661519 0.00745936 0.14316503 0.04402247    0.0267386 ----
    51   0   0   F    F  1.08D-01 0.02661519 0.00745936 0.01549918 0.00476591    0.0219893 ----
    52   0   0   F    T  2.91D+00 0.02923029 0.00630736 0.13387766 0.04878838    0.0219428 ----
    53   0   0   F    F -4.21D-01 0.02923029 0.00630736 0.05640249 0.02055448    0.0208064 ----
    54   0   0   F    T  2.49D+00 0.01648205 0.00501574 0.09187930 0.02823390    0.0195300 ----
    55   0   0   F    F  1.27D-02 0.01648205 0.00501574 0.00116504 0.00035801    0.0172578 ----
    56   0   0   F    T  1.87D+00 0.01734670 0.00556736 0.08090908 0.02859191    0.0172575 ----
    57   0   0   F    F  5.18D-01 0.01734670 0.00556736 0.04188562 0.01480168    0.0144670 ----
    58   0   0   F    T  2.04D+00 0.03195639 0.00638035 0.12301678 0.04339358    0.0141008 ----
    59   0   0   F    F  7.93D-02 0.03195639 0.00638035 0.00975926 0.00344253    0.0109015 ----
    60   0   0   F    T  2.62D+00 0.02237450 0.00563248 0.13000857 0.04683611    0.0108843 ----
    61   0   0   F    F -1.14D-01 0.02237450 0.00563248 0.01481188 0.00533604    0.0082470 ----
    62   0   0   F    T  1.84D+00 0.02483298 0.00628830 0.10475292 0.04150007    0.0082016 ----
    63   0   0   F    F  8.88D-01 0.02483298 0.00628830 0.09299882 0.03684344    0.0044762 ----
    64   0   0   F    F -1.42D-02 0.02483298 0.00628830 0.00131714 0.00052181    0.0034903 ----
    65   0   0   F    T  1.89D+00 0.03167369 0.00851050 0.21362156 0.07782170    0.0034902 ----
    66   0   0   F    F  3.27D-01 0.03167369 0.00851050 0.06983941 0.02544229   -0.0028916 ----
    67   0   0   F    F -4.03D-02 0.03167369 0.00851050 0.00281500 0.00102550   -0.0033171 ----
    68   0   0   F    T  3.23D+00 0.02392555 0.00679976 0.28466093 0.10223849   -0.0033179 ----
    69   0   0   F    F -4.40D-01 0.02392555 0.00679976 0.12526479 0.04498996   -0.0043310 ----
    70   0   0   F    F -1.55D-03 0.02392555 0.00679976 0.00019431 0.00006979   -0.0063850 --++
    71   0   0   F    T  2.35D+00 0.03128608 0.00665566 0.16823433 0.05731832   -0.0063850 ----
    72   0   0   F    F  2.18D-01 0.03128608 0.00665566 0.03659434 0.01246788   -0.0106684 ----
    73   0   0   F    F -1.22D-02 0.03128608 0.00665566 0.00044723 0.00015237   -0.0108001 --++
    74   0   0   F    T  2.34D+00 0.02342023 0.00705374 0.20802206 0.06963384   -0.0108001 ----
    75   0   0   F    F -1.33D-01 0.02342023 0.00705374 0.02765581 0.00925758   -0.0144511 ----
    76   0   0   F    F -6.87D-03 0.02342023 0.00705374 0.00018994 0.00006358   -0.0145445 --++
    77   0   0   F    T  3.42D+00 0.01743402 0.00535980 0.17791631 0.06043984   -0.0145445 ----
    78   0   0   F    F -4.15D-01 0.01743402 0.00535980 0.07384013 0.02508418   -0.0155795 ----
    79   0   0   F    T  2.79D+00 0.01430471 0.00446564 0.11348712 0.03535566   -0.0166027 ----
    80   0   0   F    F -1.23D-01 0.01430471 0.00446564 0.01396725 0.00435134   -0.0183334 ----
    81   0   0   F    T  2.33D+00 0.01806871 0.00441323 0.09773785 0.03100432   -0.0183686 ----
    82   0   0   F    F -3.50D-02 0.01806871 0.00441323 0.00342080 0.00108514   -0.0199188 ----
    83   0   0   F    T  3.20D+00 0.01343402 0.00350144 0.08543643 0.02991917   -0.0199208 ----
    84   0   0   F    F -3.64D-01 0.01343402 0.00350144 0.03105856 0.01087647   -0.0205253 ----
    85   0   0   F    T  2.65D+00 0.00812838 0.00287132 0.06355381 0.01904271   -0.0208229 ----
    86   0   0   F    F -8.76D-02 0.00812838 0.00287132 0.00557026 0.00166902   -0.0215348 ----
    87   0   0   F    T  2.09D+00 0.01233326 0.00302831 0.06627712 0.01737368   -0.0215414 ----
    88   0   0   F    F  3.01D-01 0.01233326 0.00302831 0.01997862 0.00523714   -0.0223784 ----
    89   0   0   F    T  2.86D+00 0.00942296 0.00279934 0.09509750 0.02261082   -0.0224245 ----
    90   0   0   F    F -3.29D-01 0.00942296 0.00279934 0.03127490 0.00743607   -0.0228354 ----
    91   0   0   F    T  2.54D+00 0.00799016 0.00236945 0.05460573 0.01517475   -0.0229732 ----
    92   0   0   F    F  5.37D-02 0.00799016 0.00236945 0.00293490 0.00081560   -0.0235137 ----
    93   0   0   F    T  2.14D+00 0.00714818 0.00261060 0.05051134 0.01599035   -0.0235151 ----
    94   0   0   F    F  2.38D-01 0.00714818 0.00261060 0.01201147 0.00380247   -0.0241421 ----
    95   0   0   F    T  2.71D+00 0.01186341 0.00250872 0.06172876 0.01979282   -0.0241661 ----
    96   0   0   F    F -2.65D-01 0.01186341 0.00250872 0.01636236 0.00524645   -0.0245562 ----
    97   0   0   F    T  2.75D+00 0.00782757 0.00204969 0.04900462 0.01454636   -0.0246130 ----
    98   0   0   F    F  7.32D-02 0.00782757 0.00204969 0.00358486 0.00106412   -0.0250561 ----
    99   0   0   F    T  2.13D+00 0.01088131 0.00230597 0.05611009 0.01561048   -0.0250582 ----
   100   0   0   F    F  1.81D-01 0.01088131 0.00230597 0.01015451 0.00282510   -0.0255313 ----
   101   0   0   F    T  2.63D+00 0.00750386 0.00222429 0.05782471 0.01843558   -0.0255428 ----
   102   0   0   F    F -1.81D-01 0.00750386 0.00222429 0.01043975 0.00332838   -0.0259056 ----
   103   0   0   F    T  2.82D+00 0.00532566 0.00185890 0.05793134 0.01510720   -0.0259237 ----
   104   0   0   F    F -9.65D-02 0.00532566 0.00185890 0.00559156 0.00145816   -0.0262378 ----
   105   0   0   F    T  2.03D+00 0.00890084 0.00202506 0.05133704 0.01364904   -0.0262415 ----
   106   0   0   F    F  2.98D-01 0.00890084 0.00202506 0.01530827 0.00407003   -0.0266095 ----
   107   0   0   F    T  2.73D+00 0.00634673 0.00196201 0.06992077 0.01771907   -0.0266299 ----
   108   0   0   F    F -2.06D-01 0.00634673 0.00196201 0.01440048 0.00364932   -0.0269106 ----
   109   0   0   F    T  2.62D+00 0.00610102 0.00174631 0.05195289 0.01406975   -0.0269310 ----
   110   0   0   F    F -2.59D-02 0.00610102 0.00174631 0.00134685 0.00036475   -0.0272110 ----
   111   0   0   F    T  1.98D+00 0.00782491 0.00195222 0.03843905 0.01370500   -0.0272112 ----
   112   0   0   F    F  6.27D-01 0.00782491 0.00195222 0.02409633 0.00859127   -0.0275878 ----
   113   0   0   F    T  2.55D+00 0.00894831 0.00214194 0.05914327 0.02229628   -0.0276534 ----
   114   0   0   F    F -1.42D-01 0.00894831 0.00214194 0.00836978 0.00315530   -0.0280078 ----
   115   0   0   F    T  2.37D+00 0.00677098 0.00205485 0.06296626 0.01914097   -0.0280179 ----
   116   0   0   F    F  2.56D-01 0.00677098 0.00205485 0.01611708 0.00489940   -0.0284477 ----
   117   0   0   F    T  2.05D+00 0.01045988 0.00244984 0.07474182 0.02404037   -0.0284660 ----
   118   0   0   F    F  6.56D-01 0.01045988 0.00244984 0.04899603 0.01575935   -0.0290804 ----
   119   0   0   F    F -7.96D-03 0.01045988 0.00244984 0.00039020 0.00012551   -0.0291928 --++
   120   0   0   F    T  2.40D+00 0.00988364 0.00281009 0.11417111 0.03967422   -0.0291928 ----
   121   0   0   F    F -1.65D-01 0.00988364 0.00281009 0.01886274 0.00655476   -0.0297465 ----
   122   0   0   F    T  2.98D+00 0.00783755 0.00233273 0.09921299 0.03311946   -0.0297697 ----
   123   0   0   F    F -1.90D-01 0.00783755 0.00233273 0.01881197 0.00627984   -0.0302195 ----
   124   0   0   F    T  2.47D+00 0.00723059 0.00232005 0.07773188 0.02683961   -0.0302460 ----
   125   0   0   F    F -5.41D-02 0.00723059 0.00232005 0.00420856 0.00145315   -0.0306975 ----
   126   0   0   F    T  2.89D+00 0.00756416 0.00208439 0.06801836 0.02538646   -0.0306990 ----
   127   0   0   F    F -3.58D-01 0.00756416 0.00208439 0.02432687 0.00907951   -0.0308991 ----
   128   0   0   F    T  3.77D+00 0.00674835 0.00144493 0.04633428 0.01630696   -0.0309908 ----
   129   0   0   F    F -3.72D-01 0.00674835 0.00144493 0.01725102 0.00607135   -0.0311059 ----
   130   0   0   F    T  2.20D+00 0.00533134 0.00147198 0.03336670 0.01023561   -0.0311686 ----
   131   0   0   F    F  2.74D-01 0.00533134 0.00147198 0.00915784 0.00280927   -0.0313777 ----
   132   0   0   F    T  2.58D+00 0.00640182 0.00150289 0.03872435 0.01304487   -0.0313880 ----
   133   0   0   F    F -6.71D-02 0.00640182 0.00150289 0.00259720 0.00087491   -0.0315837 ----
   134   0   0   F    T  2.80D+00 0.00509633 0.00137622 0.03212480 0.01216997   -0.0315847 ----
   135   0   0   F    F  5.18D-02 0.00509633 0.00137622 0.00166311 0.00063004   -0.0317865 ----
   136   0   0   F    T  1.95D+00 0.00718526 0.00168368 0.03871797 0.01280001   -0.0317870 ----
   137   0   0   F    F  5.75D-01 0.00718526 0.00168368 0.02224672 0.00735468   -0.0320564 ----
   138   0   0   F    T  3.20D+00 0.00594553 0.00164434 0.06193741 0.02015469   -0.0320970 ----
   139   0   0   F    F -3.69D-01 0.00594553 0.00164434 0.02285627 0.00743753   -0.0322257 ----
   140   0   0   F    T  3.44D+00 0.00422285 0.00121231 0.03751594 0.01271717   -0.0322944 ----
   141   0   0   F    F -1.76D-01 0.00422285 0.00121231 0.00660652 0.00223948   -0.0324382 ----
   142   0   0   F    T  2.18D+00 0.00526715 0.00137184 0.02607756 0.01047769   -0.0324452 ----
   143   0   0   F    F  2.67D-01 0.00526715 0.00137184 0.00696717 0.00279934   -0.0326233 ----
   144   0   0   F    T  3.39D+00 0.00360508 0.00120902 0.04062627 0.01327703   -0.0326315 ----
   145   0   0   F    F -2.58D-01 0.00360508 0.00120902 0.01048666 0.00342713   -0.0327475 ----
   146   0   0   F    T  2.18D+00 0.00582257 0.00126747 0.03113450 0.00984989   -0.0327634 ----
   147   0   0   F    F  8.96D-01 0.00582257 0.00126747 0.02788342 0.00882136   -0.0329498 ----
   148   0   0   F    T  2.06D+00 0.00610362 0.00177549 0.04994959 0.01867125   -0.0330039 ----
   149   0   0   F    F  2.36D-01 0.00610362 0.00177549 0.01180874 0.00441413   -0.0332867 ----
   150   0   0   F    T  3.69D+00 0.00513182 0.00156060 0.06473882 0.02308539   -0.0332977 ----
   151   0   0   F    F -3.76D-01 0.00513182 0.00156060 0.02435061 0.00868325   -0.0334271 ----
   152   0   0   F    T  2.48D+00 0.00630098 0.00146368 0.04221455 0.01440214   -0.0334973 ----
   153   0   0   F    F  2.05D-01 0.00630098 0.00146368 0.00865958 0.00295435   -0.0337228 ----
   154   0   0   F    T  3.34D+00 0.00434735 0.00134980 0.05993381 0.01735649   -0.0337296 ----
   155   0   0   F    F -4.32D-01 0.00434735 0.00134980 0.02589927 0.00750028   -0.0337817 ----
   156   0   0   F    T  3.92D+00 0.00367620 0.00092204 0.03654553 0.00985621   -0.0338541 ----
   157   0   0   F    F -3.17D-01 0.00367620 0.00092204 0.01156679 0.00311953   -0.0339186 ----
   158   0   0   F    T  2.02D+00 0.00415145 0.00103344 0.02342656 0.00673668   -0.0339361 ----
   159   0   0   F    F  7.81D-01 0.00415145 0.00103344 0.01828598 0.00525843   -0.0340476 ----
   160   0   0   F    T  2.97D+00 0.00406443 0.00110698 0.03582796 0.01199511   -0.0340739 ----
   161   0   0   F    F -2.35D-01 0.00406443 0.00110698 0.00843122 0.00282275   -0.0341648 ----
   162   0   0   F    T  2.78D+00 0.00443811 0.00097650 0.02511391 0.00917236   -0.0341745 ----
   163   0   0   F    F  2.40D-01 0.00443811 0.00097650 0.00602292 0.00219975   -0.0342883 ----
   164   0   0   F    T  2.13D+00 0.00442380 0.00123320 0.03470045 0.01137211   -0.0342927 ----
   165   0   0   F    F  2.65D-01 0.00442380 0.00123320 0.00918930 0.00301154   -0.0344326 ----
   166   0   0   F    T  4.14D+00 0.00287986 0.00095318 0.04997511 0.01438365   -0.0344389 ----
   167   0   0   F    F -4.78D-01 0.00287986 0.00095318 0.02390615 0.00688058   -0.0344502 ----
   168   0   0   F    T  2.44D+00 0.00326152 0.00087425 0.02193660 0.00750307   -0.0345096 ----
   169   0   0   F    F  5.54D-01 0.00326152 0.00087425 0.01215102 0.00415607   -0.0346009 ----
   170   0   0   F    T  2.18D+00 0.00310516 0.00114053 0.03075620 0.01165914   -0.0346142 ----
   171   0   0   F    F  2.98D-01 0.00310516 0.00114053 0.00915909 0.00347205   -0.0347385 ----
   172   0   0   F    T  3.07D+00 0.00377968 0.00107395 0.03561035 0.01513119   -0.0347454 ----
   173   0   0   F    T  1.87D+00 0.00417878 0.00134646 0.04027855 0.01513119   -0.0348723 ----
   174   0   0   F    F  1.12D+00 0.00417878 0.00134646 0.04496028 0.01688994   -0.0350609 ----
   175   0   0   F    F -1.22D-02 0.00417878 0.00134646 0.00054787 0.00020581   -0.0351351 ---+
   176   0   0   F    T  2.49D+00 0.00556595 0.00171393 0.08446726 0.03181531   -0.0351351 ----
   177   0   0   F    F -6.37D-02 0.00556595 0.00171393 0.00537738 0.00202544   -0.0353773 ----
   178   0   0   F    T  3.50D+00 0.00490968 0.00142062 0.07077487 0.02978988   -0.0353784 ----
   179   0   0   F    F -3.10D-01 0.00490968 0.00142062 0.02191824 0.00922562   -0.0355181 ----
   180   0   0   F    T  2.44D+00 0.00485542 0.00135709 0.05409200 0.02056426   -0.0355519 ----
   181   0   0   F    F  2.76D-01 0.00485542 0.00135709 0.01493828 0.00567911   -0.0357539 ----
   182   0   0   F    T  2.89D+00 0.00439148 0.00140980 0.06668623 0.02624338   -0.0357643 ----
   183   0   0   F    F -2.70D-01 0.00439148 0.00140980 0.01800395 0.00708519   -0.0358951 ----
   184   0   0   F    T  3.04D+00 0.00419438 0.00122967 0.04700468 0.01915819   -0.0359162 ----
   185   0   0   F    F -3.17D-03 0.00419438 0.00122967 0.00014877 0.00006064   -0.0360774 --++
   186   0   0   F    T  2.06D+00 0.00632965 0.00145553 0.04686280 0.01909755   -0.0360774 ----
   187   0   0   F    F  8.07D-01 0.00632965 0.00145553 0.03783656 0.01541917   -0.0363053 ----
   188   0   0   F    F -1.53D-02 0.00632965 0.00145553 0.00057880 0.00023587   -0.0363618 ---+
   189   0   0   F    T  2.68D+00 0.00528344 0.00161538 0.08951495 0.03428085   -0.0363618 ----
   190   0   0   F    F -1.89D-01 0.00528344 0.00161538 0.01687517 0.00646255   -0.0365596 ----
   191   0   0   F    T  2.86D+00 0.00494704 0.00149993 0.07376794 0.02781830   -0.0365717 ----
   192   0   0   F    F  9.65D-03 0.00494704 0.00149993 0.00071208 0.00026853   -0.0367990 ---+
   193   0   0   F    T  2.36D+00 0.00573470 0.00162698 0.07749450 0.02808683   -0.0367991 ----
   194   0   0   F    F  1.28D-01 0.00573470 0.00162698 0.00993186 0.00359967   -0.0370483 ----
   195   0   0   F    T  3.22D+00 0.00567869 0.00137436 0.09170489 0.03168649   -0.0370515 ----
   196   0   0   F    F -4.13D-01 0.00567869 0.00137436 0.03784202 0.01307543   -0.0371136 ----
   197   0   0   F    T  3.21D+00 0.00509367 0.00109534 0.05798484 0.01861106   -0.0371820 ----
   198   0   0   F    F -1.07D-01 0.00509367 0.00109534 0.00620242 0.00199076   -0.0373040 ----
   199   0   0   F    T  2.01D+00 0.00420440 0.00131703 0.05446333 0.01662030   -0.0373057 ----
   200   0   0   F    F  6.37D-01 0.00420440 0.00131703 0.03471113 0.01059262   -0.0374783 ----
   201   0   0   F    F -6.14D-03 0.00420440 0.00131703 0.00021325 0.00006508   -0.0375084 --++
   202   0   0   F    T  2.52D+00 0.00609988 0.00147363 0.09387788 0.02714785   -0.0375084 ----
   203   0   0   F    F -1.02D-01 0.00609988 0.00147363 0.00959003 0.00277327   -0.0376856 ----
   204   0   0   F    T  3.11D+00 0.00420976 0.00126698 0.08724211 0.02437458   -0.0376880 ----
   205   0   0   F    F  1.94D-02 0.00420976 0.00126698 0.00168983 0.00047212   -0.0378725 ----
   206   0   0   F    T  1.95D+00 0.00521095 0.00164097 0.08878494 0.02484670   -0.0378725 ----
   207   0   0   F    F  4.92D-01 0.00521095 0.00164097 0.04364493 0.01221415   -0.0381206 ----
   208   0   0   F    F -1.40D-02 0.00521095 0.00164097 0.00060963 0.00017061   -0.0381499 ---+
   209   0   0   F    T  3.53D+00 0.00599233 0.00149302 0.13701416 0.03689025   -0.0381499 ----
   210   0   0   F    F -4.30D-01 0.00599233 0.00149302 0.05891616 0.01586282   -0.0382206 ----
   211   0   0   F    T  3.67D+00 0.00393083 0.00106159 0.07911208 0.02102742   -0.0383104 ----
   212   0   0   F    F -1.83D-01 0.00393083 0.00106159 0.01447675 0.00384782   -0.0384265 ----
   213   0   0   F    T  2.02D+00 0.00359721 0.00128312 0.06192328 0.01717961   -0.0384326 ----
   214   0   0   F    F  3.32D-01 0.00359721 0.00128312 0.02053056 0.00569587   -0.0385835 ----
   215   0   0   F    T  3.56D+00 0.00440403 0.00113762 0.08542170 0.02287548   -0.0385935 ----
   216   0   0   F    F -3.31D-01 0.00440403 0.00113762 0.02830079 0.00757880   -0.0386771 ----
   217   0   0   F    T  2.46D+00 0.00326189 0.00110189 0.05962433 0.01529668   -0.0387035 ----
   218   0   0   F    F  4.56D-01 0.00326189 0.00110189 0.02717278 0.00697120   -0.0388452 ----
   219   0   0   F    T  2.01D+00 0.00474662 0.00145329 0.08348775 0.02226788   -0.0388607 ----
   220   0   0   F    F  2.29D-01 0.00474662 0.00145329 0.01915178 0.00510817   -0.0390460 ----
   221   0   0   F    T  4.40D+00 0.00422926 0.00116973 0.10085544 0.02737605   -0.0390529 ----
   222   0   0   T    F  4.69D-01 0.00422926 0.00116973 0.04728161 0.01283405   -0.0390267 ----
   223   0   0   F    T  2.50D+00 0.00376290 0.00105403 0.04759100 0.01283405   -0.0391539 ----
   224   0   0   F    F  3.49D-01 0.00376290 0.00105403 0.01661278 0.00448003   -0.0392792 ----
   225   0   0   F    T  2.42D+00 0.00442387 0.00121956 0.05900289 0.01731408   -0.0392881 ----
   226   0   0   F    F -1.56D-02 0.00442387 0.00121956 0.00091837 0.00026949   -0.0394176 ---+
   227   0   0   F    T  3.97D+00 0.00395645 0.00095879 0.05728942 0.01704459   -0.0394176 ----
   228   0   0   F    F -3.04D-01 0.00395645 0.00095879 0.01741497 0.00518125   -0.0394916 ----
   229   0   0   F    T  1.85D+00 0.00386444 0.00116809 0.03917943 0.01186334   -0.0395088 ----
   230   0   0   F    F  1.29D+00 0.00386444 0.00116809 0.05041164 0.01526440   -0.0396500 ----
   231   0   0   F    F -1.41D-02 0.00386444 0.00116809 0.00070862 0.00021457   -0.0397142 ---+
   232   0   0   F    T  2.97D+00 0.00589897 0.00135351 0.08535648 0.02691317   -0.0397142 ----
   233   0   0   F    F -3.71D-01 0.00589897 0.00135351 0.03165908 0.00998221   -0.0397930 ----
   234   0   0   F    T  4.96D+00 0.00330046 0.00090580 0.05041036 0.01693096   -0.0398404 ----
   235   0   0   F    F -4.77D-01 0.00330046 0.00090580 0.02403833 0.00807358   -0.0398541 ----
   236   0   0   F    T  2.01D+00 0.00291115 0.00102158 0.02604002 0.00885738   -0.0399168 ----
   237   0   0   F    F  8.57D-01 0.00291115 0.00102158 0.02231539 0.00759047   -0.0400276 ----
   238   0   0   F    T  3.86D+00 0.00319596 0.00098281 0.04853172 0.01644785   -0.0400577 ----
   239   0   0   F    F -4.43D-01 0.00319596 0.00098281 0.02149937 0.00728634   -0.0400837 ----
   240   0   0   F    T  2.77D+00 0.00291891 0.00087520 0.02790817 0.00916151   -0.0401331 ----
   241   0   0   F    F  9.53D-01 0.00291891 0.00087520 0.02659530 0.00873053   -0.0402464 ----
   242   0   0   F    T  1.88D+00 0.00451002 0.00149243 0.05384307 0.01789205   -0.0402816 ----
   243   0   0   F    F  5.48D-01 0.00451002 0.00149243 0.02948395 0.00979751   -0.0404824 ----
   244   0   0   F    F -9.67D-03 0.00451002 0.00149243 0.00028504 0.00009472   -0.0405102 --++
   245   0   0   F    T  6.31D+00 0.00307001 0.00096440 0.07097484 0.02759484   -0.0405102 ----
   246   0   0   T    F  3.85D-01 0.00307001 0.00096440 0.02730559 0.01061634   -0.0403750 ----
   247   0   0   F    T  2.20D+00 0.00311797 0.00101062 0.02676872 0.01061634   -0.0405920 ----
   248   0   0   F    F  1.27D+00 0.00311797 0.00101062 0.03405979 0.01350794   -0.0407177 ----
   249   0   0   F    F -6.21D-03 0.00311797 0.00101062 0.00021147 0.00008387   -0.0407743 --++
   250   0   0   F    T  3.46D+00 0.00423026 0.00121962 0.05974915 0.02404042   -0.0407743 ----
   251   0   0   F    F -3.82D-01 0.00423026 0.00121962 0.02279548 0.00917189   -0.0408455 ----
   252   0   0   F    T  3.11D+00 0.00296696 0.00098157 0.03646082 0.01486853   -0.0408884 ----
   253   0   0   F    F  1.09D+00 0.00296696 0.00098157 0.03988001 0.01626286   -0.0410520 ----
   254   0   0   F    F -1.11D-02 0.00296696 0.00098157 0.00044366 0.00018092   -0.0411125 --++
   255   0   0   F    T  2.20D+00 0.00563679 0.00167160 0.07578135 0.03095046   -0.0411125 ----
   256   0   0   F    F -4.43D-02 0.00563679 0.00167160 0.00336043 0.00137246   -0.0413287 ----
   257   0   0   F    T  8.09D+00 0.00271400 0.00092642 0.07214722 0.02957800   -0.0413292 ----
   258   0   0   T    F  2.94D-01 0.00271400 0.00092642 0.02120138 0.00869187   -0.0409855 ----
   259   0   0   F    T  2.27D+00 0.00344109 0.00093148 0.02053956 0.00869187   -0.0414025 ----
   260   0   0   F    F  9.67D-01 0.00344109 0.00093148 0.01986504 0.00840643   -0.0415080 ----
   261   0   0   F    T  4.36D+00 0.00256637 0.00092156 0.04027869 0.01709830   -0.0415415 ----
   262   0   0   T    F  4.46D-01 0.00256637 0.00092156 0.01796889 0.00762779   -0.0415079 ----
   263   0   0   F    T  2.83D+00 0.00262524 0.00075758 0.01927539 0.00762779   -0.0416012 ----
   264   0   0   F    F  1.51D+00 0.00262524 0.00075758 0.02916098 0.01153978   -0.0416949 ----
   265   0   0   F    F -4.40D-03 0.00262524 0.00075758 0.00012818 0.00005072   -0.0417481 --++
   266   0   0   F    T  2.43D+00 0.00490069 0.00129244 0.04430577 0.01911685   -0.0417481 ----
   267   0   0   F    F -1.51D-01 0.00490069 0.00129244 0.00668101 0.00288269   -0.0418681 ----
   268   0   0   F    T  7.78D+00 0.00219034 0.00064269 0.04488953 0.01623416   -0.0418720 ----
   269   0   0   T    F  3.54D-01 0.00219034 0.00064269 0.01589105 0.00574695   -0.0417762 ----
   270   0   0   F    T  1.89D+00 0.00217301 0.00076260 0.01541829 0.00574695   -0.0419130 ----
   271   0   0   F    F  1.60D+00 0.00217301 0.00076260 0.02470390 0.00920803   -0.0419769 ----
   272   0   0   F    T  4.42D+00 0.00321458 0.00079815 0.04205567 0.01495497   -0.0420160 ----
   273   0   0   F    F -4.66D-01 0.00321458 0.00079815 0.01960776 0.00697251   -0.0420293 ----
   274   0   0   F    T  2.33D+00 0.00259290 0.00078820 0.02409880 0.00798247   -0.0420697 ----
   275   0   0   F    F  1.85D+00 0.00259290 0.00078820 0.04456878 0.01476293   -0.0421557 ----
   276   0   0   F    F -1.66D-02 0.00259290 0.00078820 0.00074061 0.00024532   -0.0422178 ---+
   277   0   0   F    T  2.73D+00 0.00438401 0.00120681 0.06574803 0.02250007   -0.0422178 ----
   278   0   0   F    F -3.49D-01 0.00438401 0.00120681 0.02291892 0.00784324   -0.0422842 ----
   279   0   0   F    T  7.63D+00 0.00236032 0.00063130 0.04658227 0.01465683   -0.0423122 ----
   280   0   0   T    F  4.07D-01 0.00236032 0.00063130 0.01897221 0.00596949   -0.0422665 ----
   281   0   0   F    T  1.86D+00 0.00267742 0.00079646 0.01754550 0.00596949   -0.0423565 ----
   282   0   0   F    F  1.69D+00 0.00267742 0.00079646 0.02960603 0.01007284   -0.0424260 ----
   283   0   0   F    F -6.82D-03 0.00267742 0.00079646 0.00020181 0.00006866   -0.0424715 --++
   284   0   0   F    T  3.58D+00 0.00264083 0.00089972 0.04483789 0.01597367   -0.0424715 ----
   285   0   0   F    F -4.28D-01 0.00264083 0.00089972 0.01918561 0.00683495   -0.0424970 ----
   286   0   0   F    T  2.79D+00 0.00286537 0.00078421 0.02637165 0.00913872   -0.0425317 ----
   287   0   0   F    F  1.37D+00 0.00286537 0.00078421 0.03601191 0.01247942   -0.0426263 ----
   288   0   0   F    F -1.17D-02 0.00286537 0.00078421 0.00041982 0.00014548   -0.0426700 --++
   289   0   0   F    T  2.62D+00 0.00410784 0.00122595 0.05899740 0.02147266   -0.0426701 ----
   290   0   0   F    F -3.24D-01 0.00410784 0.00122595 0.01914124 0.00696664   -0.0427439 ----
   291   0   0   F    T  8.07D+00 0.00166003 0.00054348 0.04275309 0.01450602   -0.0427678 ----
   292   0   0   T    F  3.39D-01 0.00166003 0.00054348 0.01449314 0.00491749   -0.0426847 ----
   293   0   0   F    T  1.78D+00 0.00226692 0.00066946 0.01559581 0.00491749   -0.0427970 ----
   294   0   0   F    F  2.96D+00 0.00226692 0.00066946 0.04611943 0.01454185   -0.0428465 ----
   295   0   0   F    F -1.41D-02 0.00226692 0.00066946 0.00065233 0.00020568   -0.0429063 ---+
   296   0   0   F    T  4.29D+00 0.00252299 0.00084195 0.06251363 0.01925365   -0.0429063 ----
   297   0   0   T    F  4.85D-01 0.00252299 0.00084195 0.03033700 0.00934353   -0.0428967 ----
   298   0   0   F    T  2.53D+00 0.00211266 0.00075845 0.03010424 0.00934353   -0.0429600 ----
   299   0   0   F    F  1.40D+00 0.00211266 0.00075845 0.04213958 0.01307897   -0.0430437 ----
   300   0   0   F    F -2.09D-02 0.00211266 0.00075845 0.00088213 0.00027379   -0.0430870 ---+
   301   0   0   F    T  2.98D+00 0.00330902 0.00111555 0.07089203 0.02214872   -0.0430871 ----
   302   0   0   F    F -3.90D-01 0.00330902 0.00111555 0.02761615 0.00862808   -0.0431358 ----
   303   0   0   F    T  8.66D+00 0.00140426 0.00049689 0.04245500 0.01352063   -0.0431679 ----
   304   0   0   F    F -4.96D-01 0.00140426 0.00049689 0.02104543 0.00670233   -0.0431697 ----
   305   0   0   F    T  1.53D+00 0.00267866 0.00082722 0.02289092 0.00681830   -0.0432066 ----
   306   0   0   F    F  2.34D+00 0.00267866 0.00082722 0.05350629 0.01593740   -0.0432713 ----
   307   0   0   F    F -2.06D-02 0.00267866 0.00082722 0.00110306 0.00032856   -0.0433344 ----
   308   0   0   F    T  4.33D+00 0.00385337 0.00088666 0.07050691 0.02242714   -0.0433344 ----
   309   0   0   F    F -4.09D-01 0.00385337 0.00088666 0.02885791 0.00917925   -0.0433730 ----
   310   0   0   F    T  2.41D+00 0.00283373 0.00090323 0.03960244 0.01324789   -0.0434057 ----
   311   0   0   F    F  1.64D+00 0.00283373 0.00090323 0.06484759 0.02169296   -0.0435180 ----
   312   0   0   F    F -6.97D-02 0.00283373 0.00090323 0.00451908 0.00151173   -0.0435818 ----
   313   0   0   F    T  3.64D+00 0.00439543 0.00109877 0.10262746 0.03342912   -0.0435822 ----
   314   0   0   T    F  4.08D-01 0.00439543 0.00109877 0.04188574 0.01364356   -0.0434913 ----
   315   0   0   F    T  6.56D+00 0.00177149 0.00060441 0.03929547 0.01364356   -0.0436482 ----
   316   0   0   F    F -4.43D-01 0.00177149 0.00060441 0.01740283 0.00604234   -0.0436666 ----
   317   0   0   F    T  1.63D+00 0.00251517 0.00089526 0.02328940 0.00760122   -0.0436958 ----
   318   0   0   F    F  4.10D+00 0.00251517 0.00089526 0.09551742 0.03117507   -0.0437803 ----
   319   0   0   F    F -6.09D-02 0.00251517 0.00089526 0.00581908 0.00189924   -0.0439275 ----
   320   0   0   F    F -1.73D-02 0.00251517 0.00089526 0.00010051 0.00003280   -0.0439282 --++
   321   0   0   F    T  3.19D+00 0.00533398 0.00133516 0.11226723 0.03690986   -0.0439282 ----
   322   0   0   F    F -4.75D-01 0.00533398 0.00133516 0.05334024 0.01753656   -0.0439372 ----
   323   0   0   F    T  3.73D+00 0.00335250 0.00101589 0.05667475 0.01937330   -0.0440387 ----
   324   0   0   F    F  8.49D-02 0.00335250 0.00101589 0.00481273 0.00164515   -0.0441837 ----
   325   0   0   F    T  2.39D+00 0.00422089 0.00130699 0.06190746 0.02101845   -0.0441846 ----
   326   0   0   F    F -6.86D-02 0.00422089 0.00130699 0.00424639 0.00144171   -0.0443226 ----
   327   0   0   F    T  6.42D+00 0.00231668 0.00073184 0.06257353 0.01957674   -0.0443234 ----
   328   0   0   T    F  2.95D-01 0.00231668 0.00073184 0.01846837 0.00577801   -0.0441456 ----
   329   0   0   F    T  2.21D+00 0.00181316 0.00067777 0.02022806 0.00577801   -0.0443601 ----
   330   0   0   F    F  4.08D+00 0.00181316 0.00067777 0.08250686 0.02356753   -0.0444250 ----
   331   0   0   F    F -2.87D-02 0.00181316 0.00067777 0.00236901 0.00067669   -0.0445345 ----
   332   0   0   F    T  2.10D+00 0.00455015 0.00155061 0.10190384 0.02866885   -0.0445346 ----
   333   0   0   F    F -3.99D-02 0.00455015 0.00155061 0.00406512 0.00114365   -0.0447159 ----
   334   0   0   F    T  5.80D+00 0.00261123 0.00092263 0.09558179 0.02752520   -0.0447163 ----
   335   0   0   T    F  4.14D-01 0.00261123 0.00092263 0.03957495 0.01139661   -0.0446439 ----
   336   0   0   F    T  2.45D+00 0.00323627 0.00091385 0.03921960 0.01139661   -0.0447896 ----
   337   0   0   F    F  4.17D-01 0.00323627 0.00091385 0.01634697 0.00475018   -0.0448846 ----
   338   0   0   F    T  6.00D+00 0.00200902 0.00066627 0.05614313 0.01614679   -0.0448935 ----
   339   0   0   T    F  2.96D-01 0.00200902 0.00066627 0.01661864 0.00477953   -0.0447553 ----
   340   0   0   F    T  2.74D+00 0.00135597 0.00053287 0.01482400 0.00477953   -0.0449220 ----
   341   0   0   F    F  1.29D+00 0.00135597 0.00053287 0.01914485 0.00617265   -0.0449659 ----
   342   0   0   F    T  1.67D+00 0.00312858 0.00103508 0.03593060 0.01095218   -0.0449864 ----
   343   0   0   F    F  1.20D+00 0.00312858 0.00103508 0.04327214 0.01318999   -0.0450853 ----
   344   0   0   F    F -2.60D-02 0.00312858 0.00103508 0.00112559 0.00034310   -0.0451263 ----
   345   0   0   F    T  1.08D+01 0.00217771 0.00062648 0.08297961 0.02379908   -0.0451263 ----
   346   0   0   T    F  1.58D-01 0.00217771 0.00062648 0.01314977 0.00377144   -0.0444708 ----
   347   0   0   F    T  2.65D+00 0.00126695 0.00048705 0.01238690 0.00377144   -0.0451503 ----
   348   0   0   F    F  9.67D-01 0.00126695 0.00048705 0.01198078 0.00364779   -0.0451840 ----
   349   0   0   F    T  3.03D+00 0.00159711 0.00062685 0.02466226 0.00741922   -0.0451947 ----
   350   0   0   F    F -2.77D-01 0.00159711 0.00062685 0.00682599 0.00205348   -0.0452212 ----
   351   0   0   F    T  3.55D+00 0.00115087 0.00048271 0.01846726 0.00536574   -0.0452258 ----
   352   0   0   F    F  1.90D+00 0.00115087 0.00048271 0.03505646 0.01018580   -0.0452748 ----
   353   0   0   F    F -1.20D-02 0.00115087 0.00048271 0.00041955 0.00012190   -0.0453106 --++
   354   0   0   F    T  1.73D+00 0.00405335 0.00116802 0.05204544 0.01542964   -0.0453106 ----
   355   0   0   F    F  2.96D-01 0.00405335 0.00116802 0.01539743 0.00456479   -0.0454186 ----
   356   0   0   F    F -1.55D-02 0.00405335 0.00116802 0.00023798 0.00007055   -0.0454248 --++
   357   0   0   F    T  1.12D+01 0.00177025 0.00058073 0.07298859 0.01992388   -0.0454248 ----
   358   0   0   T    F  1.80D-01 0.00177025 0.00058073 0.01315639 0.00359133   -0.0449637 ----
   359   0   0   F    T  2.31D+00 0.00144267 0.00052217 0.01126260 0.00359133   -0.0454492 ----
   360   0   0   F    F  3.82D+00 0.00144267 0.00052217 0.04296685 0.01370095   -0.0454896 ----
   361   0   0   F    F -1.46D-02 0.00144267 0.00052217 0.00062555 0.00019947   -0.0455555 ---+
   362   0   0   F    T  2.47D+00 0.00330342 0.00107514 0.05214770 0.01709282   -0.0455555 ----
   363   0   0   F    F -1.84D-01 0.00330342 0.00107514 0.00958548 0.00314190   -0.0456371 ----
   364   0   0   F    T  3.24D+00 0.00278747 0.00087493 0.04566424 0.01395092   -0.0456418 ----
   365   0   0   F    F  1.10D+00 0.00278747 0.00087493 0.05022046 0.01534289   -0.0457735 ----
   366   0   0   F    F -5.23D-02 0.00278747 0.00087493 0.00262622 0.00080234   -0.0458182 ----
   367   0   0   F    T  1.99D+00 0.00536699 0.00161942 0.09284339 0.02849147   -0.0458184 ----
   368   0   0   F    F  9.09D-02 0.00536699 0.00161942 0.00844158 0.00259052   -0.0460345 ----
   369   0   0   F    F -3.11D-02 0.00536699 0.00161942 0.00026273 0.00008063   -0.0460361 --++
   370   0   0   F    T  1.27D+01 0.00346645 0.00079529 0.10357012 0.03100137   -0.0460361 ----
   371   0   0   T    F  1.24D-01 0.00346645 0.00079529 0.01286208 0.00384997   -0.0443833 ----
   372   0   0   F    T  2.73D+00 0.00155575 0.00056297 0.01163918 0.00384997   -0.0460720 ----
   373   0   0   F    F  1.96D+00 0.00155575 0.00056297 0.02275762 0.00752769   -0.0461233 ----
   374   0   0   F    T  2.14D+00 0.00370821 0.00106909 0.03690103 0.01137767   -0.0461622 ----
   375   0   0   F    F  1.02D-01 0.00370821 0.00106909 0.00376659 0.00116135   -0.0462605 ----
   376   0   0   F    T  4.60D+00 0.00272146 0.00074560 0.03757572 0.01253902   -0.0462613 ----
   377   0   0   F    F  1.05D-01 0.00272146 0.00074560 0.00395880 0.00132105   -0.0463614 ----
   378   0   0   F    T  1.67D+00 0.00475830 0.00130033 0.04029665 0.01386007   -0.0463623 ----
   379   0   0   F    F  9.77D-01 0.00475830 0.00130033 0.03935108 0.01353484   -0.0465138 ----
   380   0   0   F    F -1.83D-02 0.00475830 0.00130033 0.00072111 0.00024803   -0.0465618 ---+
   381   0   0   F    T  1.07D+01 0.00326150 0.00062769 0.08224980 0.02714688   -0.0465618 ----
   382   0   0   T    F  1.27D-01 0.00326150 0.00062769 0.01042337 0.00344027   -0.0456445 ----
   383   0   0   F    T  4.47D+00 0.00119174 0.00033702 0.01020924 0.00344027   -0.0465810 ----
   384   0   0   F    F  4.73D-01 0.00119174 0.00033702 0.00482623 0.00162633   -0.0466052 ----
   385   0   0   F    T  2.00D+00 0.00175631 0.00060235 0.01564348 0.00506660   -0.0466079 ----
   386   0   0   F    F  2.57D-01 0.00175631 0.00060235 0.00401492 0.00130035   -0.0466394 ----
   387   0   0   F    T  4.59D+00 0.00132232 0.00043142 0.01801144 0.00636695   -0.0466408 ----
   388   0   0   F    F -7.45D-02 0.00132232 0.00043142 0.00134120 0.00047411   -0.0466691 ----
   389   0   0   F    T  1.42D+00 0.00213766 0.00074008 0.01650087 0.00589284   -0.0466693 ----
   390   0   0   F    F  5.43D+00 0.00213766 0.00074008 0.08968223 0.03202759   -0.0467210 ----
   391   0   0   F    F -2.21D-02 0.00213766 0.00074008 0.00198278 0.00070810   -0.0468465 ----
   392   0   0   F    T  4.99D+00 0.00406476 0.00101009 0.10741966 0.03721233   -0.0468465 ----
   393   0   0   T    F  2.97D-01 0.00406476 0.00101009 0.03192152 0.01105826   -0.0465941 ----
   394   0   0   F    T  5.31D+00 0.00179627 0.00052637 0.03317120 0.01105826   -0.0469010 ----
   395   0   0   F    F -8.68D-02 0.00179627 0.00052637 0.00287962 0.00095998   -0.0469490 ----
   396   0   0   F    T  1.89D+00 0.00280195 0.00083843 0.03024011 0.01009828   -0.0469494 ----
   397   0   0   F    F  4.90D-01 0.00280195 0.00083843 0.01480746 0.00494475   -0.0470128 ----
   398   0   0   F    T  6.35D+00 0.00222308 0.00055046 0.04388471 0.01504303   -0.0470204 ----
   399   0   0   F    F -2.97D-01 0.00222308 0.00055046 0.01302232 0.00446386   -0.0470604 ----
   400   0   0   F    T  1.39D+00 0.00399230 0.00098134 0.02933412 0.01057918   -0.0470690 ----
   401   0   0   F    F  6.97D+00 0.00399230 0.00098134 0.20436183 0.07370189   -0.0471599 ----
   402   0   0   F    F -1.18D-01 0.00399230 0.00098134 0.02408808 0.00868722   -0.0474383 ----
   403   0   0   F    F -2.67D-02 0.00399230 0.00098134 0.00064239 0.00023168   -0.0474442 ---+
   404   0   0   F    T  2.45D+00 0.00636579 0.00198420 0.21016450 0.07582551   -0.0474442 ----
   405   0   0   F    F -2.74D-01 0.00636579 0.00198420 0.05764875 0.02079916   -0.0476650 ----
   406   0   0   F    F -1.86D-02 0.00636579 0.00198420 0.00107311 0.00038717   -0.0477061 ----
   407   0   0   F    T  6.15D+00 0.00492340 0.00146662 0.17736500 0.05541352   -0.0477061 ----
   408   0   0   T    F  3.11D-01 0.00492340 0.00146662 0.05513079 0.01722432   -0.0471988 ----
   409   0   0   F    T  2.85D+00 0.00456578 0.00113034 0.06306744 0.01722432   -0.0478518 ----
   410   0   0   F    F  4.51D-01 0.00456578 0.00113034 0.02842866 0.00776414   -0.0480237 ----
   411   0   0   F    T  3.31D+00 0.00442447 0.00122226 0.08978389 0.02498845   -0.0480422 ----
   412   0   0   T    F  4.91D-01 0.00442447 0.00122226 0.04411479 0.01227793   -0.0480326 ----
   413   0   0   F    T  5.13D+00 0.00244390 0.00071618 0.04430226 0.01227793   -0.0481303 ----
   414   0   0   F    F -2.14D-01 0.00244390 0.00071618 0.00949828 0.00263235   -0.0481991 ----
   415   0   0   F    T  1.48D+00 0.00450343 0.00117280 0.03595414 0.00964558   -0.0482046 ----
   416   0   0   F    F  3.66D+00 0.00450343 0.00117280 0.13145238 0.03526532   -0.0483348 ----
   417   0   0   F    F -2.75D-02 0.00450343 0.00117280 0.00360891 0.00096818   -0.0485364 ----
   418   0   0   F    T  3.56D+00 0.00567778 0.00158941 0.16607640 0.04394272   -0.0485366 ----
   419   0   0   T    F  3.84D-01 0.00567778 0.00158941 0.06382008 0.01688637   -0.0483076 ----
   420   0   0   F    T  8.72D+00 0.00201479 0.00072157 0.07680121 0.01688637   -0.0486629 ----
   421   0   0   T    F  4.09D-01 0.00201479 0.00072157 0.03141662 0.00690761   -0.0485877 ----
   422   0   0   F    T  2.20D+00 0.00315305 0.00090436 0.03430920 0.00690761   -0.0487299 ----
   423   0   0   F    F  6.48D-02 0.00315305 0.00090436 0.00222424 0.00044781   -0.0487986 ----
   424   0   0   F    T  7.86D+00 0.00172290 0.00046667 0.03374742 0.00735542   -0.0487988 ----
   425   0   0   T    F  2.71D-01 0.00172290 0.00046667 0.00913786 0.00199164   -0.0486945 ----
   426   0   0   F    T  1.78D+00 0.00156385 0.00048464 0.00832984 0.00199164   -0.0488155 ----
   427   0   0   F    F  1.07D+01 0.00156385 0.00048464 0.08920438 0.02132852   -0.0488443 ----
   428   0   0   F    F -9.22D-03 0.00156385 0.00048464 0.00082238 0.00019663   -0.0489940 ---+
   429   0   0   F    T  2.40D+00 0.00443670 0.00141547 0.09847321 0.02312354   -0.0489940 ----
   430   0   0   F    F -1.51D-01 0.00443670 0.00141547 0.01488862 0.00349616   -0.0491335 ----
   431   0   0   F    T  6.50D+00 0.00277183 0.00077100 0.08293072 0.01962738   -0.0491378 ----
   432   0   0   T    F  3.67D-01 0.00277183 0.00077100 0.03042302 0.00720028   -0.0490417 ----
   433   0   0   F    T  2.20D+00 0.00247217 0.00077293 0.02902328 0.00720028   -0.0491886 ----
   434   0   0   F    F  7.82D-01 0.00247217 0.00077293 0.02269683 0.00563077   -0.0492574 ----
   435   0   0   F    T  6.97D+00 0.00150430 0.00056427 0.04815051 0.01283105   -0.0492740 ----
   436   0   0   T    F  2.40D-01 0.00150430 0.00056427 0.01156926 0.00308295   -0.0491016 ----
   437   0   0   F    T  2.63D+00 0.00150854 0.00043570 0.00980592 0.00308295   -0.0492932 ----
   438   0   0   F    F  2.02D+00 0.00150854 0.00043570 0.01983518 0.00623613   -0.0493231 ----
   439   0   0   F    T  1.34D+00 0.00391325 0.00105296 0.02818219 0.00931908   -0.0493473 ----
   440   0   0   F    F  2.54D+00 0.00391325 0.00105296 0.07163424 0.02368748   -0.0494407 ----
   441   0   0   F    F -1.40D-02 0.00391325 0.00105296 0.00100497 0.00033232   -0.0495433 ----
   442   0   0   F    T  9.82D+00 0.00364096 0.00077703 0.09124580 0.03267425   -0.0495433 ----
   443   0   0   T    F  1.35D-01 0.00364096 0.00077703 0.01228711 0.00439990   -0.0483708 ----
   444   0   0   F    T  4.20D+00 0.00121489 0.00042667 0.01305004 0.00439990   -0.0495720 ----
   445   0   0   F    F -6.12D-02 0.00121489 0.00042667 0.00079916 0.00026944   -0.0495978 ---+
   446   0   0   F    T  2.68D+00 0.00181519 0.00050317 0.01060726 0.00413046   -0.0495979 ----
   447   0   0   F    F -2.26D-01 0.00181519 0.00050317 0.00239959 0.00093440   -0.0496152 ----
   448   0   0   F    T  6.34D+00 0.00075629 0.00026633 0.00909507 0.00319606   -0.0496168 ----
   449   0   0   F    F -2.31D-01 0.00075629 0.00026633 0.00209940 0.00073774   -0.0496281 ----
   450   0   0   F    T  1.27D+00 0.00201942 0.00051152 0.00729585 0.00245832   -0.0496292 ----
   451   0   0   F    F  5.27D+00 0.00201942 0.00051152 0.03842255 0.01294639   -0.0496513 ----
   452   0   0   F    F -4.04D-03 0.00201942 0.00051152 0.00015518 0.00005229   -0.0497044 --++
   453   0   0   F    T  4.19D+00 0.00284164 0.00070235 0.04108440 0.01535242   -0.0497044 ----
   454   0   0   T    F  3.38D-01 0.00284164 0.00070235 0.01389720 0.00519310   -0.0496327 ----
   455   0   0   F    T  1.26D+01 0.00065062 0.00022084 0.01458666 0.00519310   -0.0497296 ----
   456   0   0   T    F  2.79D-01 0.00065062 0.00022084 0.00406991 0.00144896   -0.0496946 ----
   457   0   0   F    T  1.58D+00 0.00099788 0.00031830 0.00399852 0.00144896   -0.0497358 ----
   458   0   0   F    F  1.69D+00 0.00099788 0.00031830 0.00675136 0.00244652   -0.0497452 ----
   459   0   0   F    T  4.25D+00 0.00116828 0.00030901 0.01144352 0.00389548   -0.0497513 ----
   460   0   0   F    F -3.90D-01 0.00116828 0.00030901 0.00446428 0.00151968   -0.0497566 ----
   461   0   0   F    T  2.03D+00 0.00088502 0.00034132 0.00715638 0.00237579   -0.0497602 ----
   462   0   0   F    F  4.09D+00 0.00088502 0.00034132 0.02927525 0.00971888   -0.0497756 ----
   463   0   0   F    T  3.63D+00 0.00178025 0.00057395 0.03733552 0.01209468   -0.0498040 ----
   464   0   0   T    F  3.70D-01 0.00178025 0.00057395 0.01380934 0.00447347   -0.0497738 ----
   465   0   0   F    T  1.44D+01 0.00065879 0.00016920 0.01515969 0.00447347   -0.0498199 ----
   466   0   0   T    F  1.47D-01 0.00065879 0.00016920 0.00223114 0.00065839   -0.0497487 ----
   467   0   0   F    T  1.82D+00 0.00053287 0.00017142 0.00210182 0.00065839   -0.0498221 ----
   468   0   0   F    F  8.68D+00 0.00053287 0.00017142 0.01824669 0.00571569   -0.0498257 ----
   469   0   0   F    T  2.59D+00 0.00167940 0.00044361 0.02230206 0.00637408   -0.0498406 ----
   470   0   0   F    F -2.37D-01 0.00167940 0.00044361 0.00529198 0.00151248   -0.0498532 ----
   471   0   0   F    T  3.84D+00 0.00109280 0.00031299 0.02067749 0.00486159   -0.0498546 ----
   472   0   0   F    F  4.18D-01 0.00109280 0.00031299 0.00864720 0.00203309   -0.0498721 ----
   473   0   0   F    T  2.29D+00 0.00137921 0.00047834 0.03039231 0.00689468   -0.0498738 ----
   474   0   0   F    F -3.85D-02 0.00137921 0.00047834 0.00117093 0.00026563   -0.0498919 ---+
   475   0   0   F    T  1.58D+01 0.00063976 0.00017492 0.02890239 0.00662905   -0.0498920 ----
   476   0   0   T    F  1.44D-01 0.00063976 0.00017492 0.00417522 0.00095763   -0.0498066 ----
   477   0   0   F    T  1.61D+00 0.00080396 0.00020230 0.00414993 0.00095763   -0.0498945 ----
   478   0   0   F    F  1.06D+01 0.00080396 0.00020230 0.04393811 0.01013907   -0.0498990 ----
   479   0   0   F    F -2.78D-03 0.00080396 0.00020230 0.00012222 0.00002820   -0.0499214 --++
   480   0   0   F    T  1.72D+00 0.00230927 0.00066066 0.04831350 0.01106850   -0.0499214 ----
   481   0   0   F    F  4.02D-01 0.00230927 0.00066066 0.01942842 0.00445100   -0.0499571 ----
   482   0   0   F    T  9.89D+00 0.00139020 0.00032679 0.07481362 0.01551950   -0.0499605 ----
   483   0   0   T    F  2.53D-01 0.00139020 0.00032679 0.01895158 0.00393136   -0.0498890 ----
   484   0   0   F    T  2.26D+00 0.00133959 0.00034092 0.01991833 0.00393136   -0.0499701 ----
   485   0   0   F    F  3.39D-01 0.00133959 0.00034092 0.00675694 0.00133364   -0.0499819 ----
   486   0   0   F    T  6.54D+00 0.00108208 0.00022300 0.02435501 0.00526500   -0.0499827 ----
   487   0   0   T    F  2.43D-01 0.00108208 0.00022300 0.00592052 0.00127988   -0.0499578 ----
   488   0   0   F    T  3.51D+00 0.00059230 0.00014452 0.00450704 0.00127988   -0.0499856 ----
   489   0   0   F    F  2.10D+00 0.00059230 0.00014452 0.00944528 0.00268221   -0.0499900 ----
   490   0   0   F    T  1.34D+00 0.00128961 0.00041036 0.01384564 0.00396209   -0.0499937 ----
   491   0   0   F    F  2.40D+00 0.00128961 0.00041036 0.03329394 0.00952744   -0.0500075 ----
   492   0   0   F    F -4.10D-03 0.00128961 0.00041036 0.00013664 0.00003910   -0.0500210 --++
   493   0   0   F    T  6.48D+00 0.00138060 0.00033717 0.04842533 0.01345043   -0.0500210 ----
   494   0   0   T    F  2.15D-01 0.00138060 0.00033717 0.01042231 0.00289486   -0.0499504 ----
   495   0   0   F    T  5.82D+00 0.00045965 0.00016051 0.01167615 0.00289486   -0.0500267 ----
   496   0   0   F    F -2.45D-01 0.00045965 0.00016051 0.00285883 0.00070879   -0.0500304 ----
   497   0   0   F    T  2.77D+00 0.00065279 0.00019909 0.00884384 0.00218607   -0.0500308 ----
   498   0   0   F    F -3.15D-01 0.00065279 0.00019909 0.00278817 0.00068920   -0.0500330 ----
   499   0   0   F    T  5.40D+00 0.00031119 0.00011293 0.00559696 0.00149687   -0.0500335 ----
   500   0   0   F    F -3.27D-01 0.00031119 0.00011293 0.00182818 0.00048894   -0.0500348 ----
   501   0   0   F    T  1.45D+00 0.00054112 0.00017612 0.00360306 0.00100794   -0.0500352 ----
   502   0   0   F    F  8.06D+00 0.00054112 0.00017612 0.02905571 0.00812819   -0.0500383 ----
   503   0   0   F    T  3.41D+00 0.00090005 0.00034345 0.03248318 0.00913613   -0.0500499 ----
   504   0   0   T    F  4.28D-01 0.00090005 0.00034345 0.01390341 0.00391043   -0.0500450 ----
   505   0   0   F    T  1.12D+01 0.00035811 0.00012194 0.01415939 0.00391043   -0.0500561 ----
   506   0   0   T    F  1.80D-01 0.00035811 0.00012194 0.00255546 0.00070575   -0.0500349 ----
   507   0   0   F    T  2.22D+00 0.00035890 0.00011243 0.00237379 0.00070575   -0.0500571 ----
   508   0   0   F    F  1.54D+00 0.00035890 0.00011243 0.00365004 0.00108519   -0.0500588 ----
   509   0   0   F    T  4.12D+00 0.00041394 0.00012834 0.00536622 0.00179094   -0.0500597 ----
   510   0   0   F    F -4.67D-01 0.00041394 0.00012834 0.00250401 0.00083570   -0.0500600 ----
   511   0   0   F    T  2.20D+00 0.00043809 0.00012572 0.00328863 0.00095524   -0.0500610 ----
   512   0   0   F    F  3.55D+00 0.00043809 0.00012572 0.01166980 0.00338971   -0.0500632 ----
   513   0   0   F    T  1.54D+00 0.00088985 0.00031842 0.01539449 0.00434495   -0.0500667 ----
   514   0   0   F    F  1.09D+00 0.00088985 0.00031842 0.01678568 0.00473760   -0.0500753 ----
   515   0   0   F    T  1.37D+01 0.00059476 0.00014768 0.03119101 0.00908255   -0.0500785 ----
   516   0   0   T    F  1.01D-01 0.00059476 0.00014768 0.00314903 0.00091697   -0.0499939 ----
   517   0   0   F    T  3.88D+00 0.00031447 0.00008529 0.00292768 0.00091697   -0.0500796 ----
   518   0   0   F    F  3.76D-01 0.00031447 0.00008529 0.00109964 0.00034441   -0.0500809 ----
   519   0   0   F    T  1.62D+00 0.00049221 0.00015330 0.00411208 0.00126138   -0.0500810 ----
   520   0   0   F    F  1.42D+00 0.00049221 0.00015330 0.00585401 0.00179572   -0.0500832 ----
   521   0   0   F    T  4.45D+00 0.00051903 0.00014205 0.01129593 0.00305710   -0.0500843 ----
   522   0   0   F    F -1.90D-01 0.00051903 0.00014205 0.00214360 0.00058014   -0.0500868 ----
   523   0   0   F    T  1.63D+00 0.00073311 0.00021055 0.00971082 0.00247696   -0.0500869 ----
   524   0   0   F    F  2.79D+00 0.00073311 0.00021055 0.02706412 0.00690331   -0.0500914 ----
   525   0   0   F    T  3.61D+00 0.00092201 0.00027277 0.03681581 0.00938028   -0.0500967 ----
   526   0   0   T    F  3.98D-01 0.00092201 0.00027277 0.01464057 0.00373026   -0.0500916 ----
   527   0   0   F    T  1.41D+01 0.00025606 0.00008680 0.01249786 0.00373026   -0.0501005 ----
   528   0   0   T    F  2.17D-01 0.00025606 0.00008680 0.00271368 0.00080996   -0.0500905 ----
   529   0   0   F    T  1.51D+00 0.00039449 0.00012209 0.00271600 0.00080996   -0.0501014 ----
   530   0   0   F    F  5.83D+00 0.00039449 0.00012209 0.01583914 0.00472351   -0.0501029 ----
   531   0   0   F    T  2.08D+00 0.00078017 0.00027105 0.01844067 0.00553347   -0.0501069 ----
   532   0   0   F    F  1.56D-01 0.00078017 0.00027105 0.00287490 0.00086267   -0.0501132 ----
   533   0   0   F    T  4.18D+00 0.00072847 0.00020496 0.01930409 0.00639613   -0.0501133 ----
   534   0   0   F    F  4.35D-01 0.00072847 0.00020496 0.00840633 0.00278532   -0.0501215 ----
   535   0   0   F    T  2.08D+00 0.00096670 0.00034803 0.02731407 0.00918145   -0.0501224 ----
   536   0   0   F    F  5.58D-02 0.00096670 0.00034803 0.00152321 0.00051202   -0.0501319 ----
   537   0   0   F    T  1.05D+01 0.00056744 0.00015727 0.02959967 0.00969347   -0.0501319 ----
   538   0   0   T    F  1.42D-01 0.00056744 0.00015727 0.00420251 0.00137626   -0.0500847 ----
   539   0   0   F    T  3.36D+00 0.00044211 0.00010316 0.00434217 0.00137626   -0.0501332 ----
   540   0   0   F    F  3.77D+00 0.00044211 0.00010316 0.01637598 0.00519041   -0.0501355 ----
   541   0   0   F    T  1.34D+00 0.00125525 0.00035645 0.02057424 0.00656667   -0.0501394 ----
   542   0   0   F    F  2.17D+00 0.00125525 0.00035645 0.04470020 0.01426694   -0.0501497 ----
   543   0   0   F    F -4.14D-03 0.00125525 0.00035645 0.00018515 0.00005909   -0.0501588 --++
   544   0   0   F    T  4.83D+00 0.00118228 0.00033009 0.06708549 0.02077452   -0.0501588 ----
   545   0   0   T    F  4.16D-01 0.00118228 0.00033009 0.02793162 0.00864965   -0.0501512 ----
   546   0   0   F    T  2.88D+00 0.00085631 0.00027503 0.02837847 0.00864965   -0.0501667 ----
   547   0   0   F    F  7.53D-01 0.00085631 0.00027503 0.02137756 0.00651580   -0.0501778 ----
   548   0   0   F    T  4.80D+00 0.00102742 0.00027791 0.04908610 0.01516545   -0.0501803 ----
   549   0   0   T    F  2.93D-01 0.00102742 0.00027791 0.01436845 0.00443922   -0.0501612 ----
   550   0   0   F    T  6.24D+00 0.00041386 0.00013178 0.01486089 0.00443922   -0.0501843 ----
   551   0   0   F    F -3.33D-01 0.00041386 0.00013178 0.00494896 0.00147835   -0.0501862 ----
   552   0   0   F    T  1.38D+00 0.00077112 0.00022845 0.00990938 0.00296087   -0.0501869 ----
   553   0   0   F    F  1.11D+01 0.00077112 0.00022845 0.10972088 0.03278406   -0.0501918 ----
   554   0   0   F    F -2.84D-02 0.00077112 0.00022845 0.00311267 0.00093005   -0.0502170 ----
   555   0   0   F    T  2.89D+00 0.00173866 0.00054435 0.11583307 0.03481488   -0.0502170 ----
   556   0   0   F    F -4.64D-01 0.00173866 0.00054435 0.05379904 0.01616989   -0.0502207 ----
   557   0   0   F    T  8.68D+00 0.00080906 0.00023768 0.06396335 0.01864500   -0.0502337 ----
   558   0   0   T    F  3.04D-01 0.00080906 0.00023768 0.01946098 0.00567278   -0.0502113 ----
   559   0   0   F    T  2.31D+00 0.00104614 0.00025335 0.01956611 0.00567278   -0.0502390 ----
   560   0   0   F    F  4.30D-01 0.00104614 0.00025335 0.00840656 0.00243730   -0.0502460 ----
   561   0   0   F    T  8.25D+00 0.00039132 0.00015818 0.02759104 0.00811008   -0.0502467 ----
   562   0   0   T    F  2.67D-01 0.00039132 0.00015818 0.00737900 0.00216898   -0.0502337 ----
   563   0   0   F    T  1.89D+00 0.00046558 0.00017048 0.00752723 0.00216898   -0.0502487 ----
   564   0   0   F    F  6.58D+00 0.00046558 0.00017048 0.04951117 0.01426669   -0.0502523 ----
   565   0   0   F    T  1.52D+00 0.00162593 0.00052313 0.05692167 0.01643566   -0.0502636 ----
   566   0   0   F    F  1.22D+00 0.00162593 0.00052313 0.06942485 0.02004585   -0.0502866 ----
   567   0   0   F    F -1.37D-02 0.00162593 0.00052313 0.00094804 0.00027374   -0.0502964 ---+
   568   0   0   F    T  1.39D+01 0.00089593 0.00025025 0.12135269 0.03620778   -0.0502964 ----
   569   0   0   T    F  1.30D-01 0.00089593 0.00025025 0.01574053 0.00469647   -0.0501167 ----
   570   0   0   F    T  2.65D+00 0.00085402 0.00020514 0.01500532 0.00469647   -0.0503005 ----
   571   0   0   F    F  6.82D-01 0.00085402 0.00020514 0.01023557 0.00320360   -0.0503061 ----
   572   0   0   F    T  3.70D+00 0.00070094 0.00022489 0.02526428 0.00790007   -0.0503072 ----
   573   0   0   F    F -4.78D-01 0.00070094 0.00022489 0.01208827 0.00377997   -0.0503078 ----
   574   0   0   F    T  3.68D+00 0.00045581 0.00016238 0.01375656 0.00412010   -0.0503107 ----
   575   0   0   F    F  2.68D+00 0.00045581 0.00016238 0.03683482 0.01103207   -0.0503168 ----
   576   0   0   F    T  1.27D+00 0.00254188 0.00053015 0.05042688 0.01515217   -0.0503235 ----
   577   0   0   F    F  2.52D+00 0.00254188 0.00053015 0.12697487 0.03815317   -0.0503458 ----
   578   0   0   F    F -3.48D-02 0.00254188 0.00053015 0.00442372 0.00132923   -0.0503693 ----
   579   0   0   F    T  7.03D+00 0.00128200 0.00042460 0.17337663 0.05197611   -0.0503693 ----
   580   0   0   T    F  2.05D-01 0.00128200 0.00042460 0.03546260 0.01063124   -0.0502411 ----
   581   0   0   F    T  6.31D+00 0.00067685 0.00020024 0.03530194 0.01063124   -0.0503786 ----
   582   0   0   F    F -3.84D-01 0.00067685 0.00020024 0.01356481 0.00408506   -0.0503821 ----
   583   0   0   F    T  2.04D+00 0.00111151 0.00027490 0.02114880 0.00654617   -0.0503842 ----
   584   0   0   F    F  3.88D-01 0.00111151 0.00027490 0.00820414 0.00253942   -0.0503913 ----
   585   0   0   F    T  4.37D+00 0.00062247 0.00021898 0.02898125 0.00908560   -0.0503919 ----
   586   0   0   F    F -3.37D-01 0.00062247 0.00021898 0.00976354 0.00306086   -0.0503957 ----
   587   0   0   F    T  1.85D+00 0.00071640 0.00027441 0.01915392 0.00602473   -0.0503969 ----
   588   0   0   F    F  4.87D+00 0.00071640 0.00027441 0.09320049 0.02931558   -0.0504060 ----
   589   0   0   F    F -2.05D-02 0.00071640 0.00027441 0.00191289 0.00060169   -0.0504248 ----
   590   0   0   F    T  2.27D+00 0.00231581 0.00059100 0.10935634 0.03473863   -0.0504248 ----
   591   0   0   F    F -3.12D-01 0.00231581 0.00059100 0.03413377 0.01084309   -0.0504406 ----
   592   0   0   F    T  3.15D+01 0.00068423 0.00018312 0.07427100 0.02389554   -0.0504452 ----
   593   0   0   T    F  5.03D-02 0.00068423 0.00018312 0.00373456 0.00120154   -0.0497651 ----
   594   0   0   F    T  2.96D+00 0.00041881 0.00013064 0.00379244 0.00120154   -0.0504471 ----
   595   0   0   F    F  2.74D+00 0.00041881 0.00013064 0.01037347 0.00328657   -0.0504502 ----
   596   0   0   F    T  3.32D+00 0.00069586 0.00023657 0.01274465 0.00448810   -0.0504539 ----
   597   0   0   F    F -3.09D-01 0.00069586 0.00023657 0.00394076 0.00138776   -0.0504575 ----
   598   0   0   F    T  2.49D+00 0.00059409 0.00022524 0.00936660 0.00310034   -0.0504585 ----
   599   0   0   F    F  4.83D+00 0.00059409 0.00022524 0.04524466 0.01497596   -0.0504668 ----
   600   0   0   F    F -5.10D-03 0.00059409 0.00022524 0.00023057 0.00007632   -0.0504851 --++
   601   0   0   F    T  2.36D+00 0.00190064 0.00055931 0.05570789 0.01799998   -0.0504851 ----
   602   0   0   F    F -1.82D-01 0.00190064 0.00055931 0.01012273 0.00327079   -0.0505057 ----
   603   0   0   F    T  3.37D+01 0.00039685 0.00012123 0.04814402 0.01472919   -0.0505067 ----
   604   0   0   T    F  6.99D-02 0.00039685 0.00012123 0.00336601 0.00102980   -0.0502883 ----
   605   0   0   F    T  1.84D+00 0.00051249 0.00013509 0.00345945 0.00102980   -0.0505080 ----
   606   0   0   F    F  5.91D+00 0.00051249 0.00013509 0.02043952 0.00608437   -0.0505102 ----
   607   0   0   F    T  2.71D+00 0.00094648 0.00029124 0.02404840 0.00711417   -0.0505163 ----
   608   0   0   F    F -1.67D-01 0.00094648 0.00029124 0.00400504 0.00118480   -0.0505229 ----
   609   0   0   F    T  3.22D+00 0.00095710 0.00024405 0.01954666 0.00592937   -0.0505232 ----
   610   0   0   F    F  2.15D+00 0.00095710 0.00024405 0.04196245 0.01272908   -0.0505348 ----
   611   0   0   F    F -3.61D-03 0.00095710 0.00024405 0.00015145 0.00004594   -0.0505446 --++
   612   0   0   F    T  3.55D+00 0.00114391 0.00040930 0.06080213 0.01861250   -0.0505446 ----
   613   0   0   T    F  4.13D-01 0.00114391 0.00040930 0.02513998 0.00769575   -0.0505351 ----
   614   0   0   F    T  3.43D+01 0.00025105 0.00009359 0.02653819 0.00769575   -0.0505535 ----
   615   0   0   T    F  6.54D-02 0.00025105 0.00009359 0.00173637 0.00050353   -0.0504101 ----
   616   0   0   F    T  1.68D+00 0.00034768 0.00010457 0.00175260 0.00050353   -0.0505542 ----
   617   0   0   F    F  1.29D+01 0.00034768 0.00010457 0.02264468 0.00650588   -0.0505555 ----
   618   0   0   F    T  2.61D+00 0.00110930 0.00031226 0.02384561 0.00700941   -0.0505635 ----
   619   0   0   F    F -1.58D-01 0.00110930 0.00031226 0.00376710 0.00110734   -0.0505709 ----
   620   0   0   F    T  4.06D+00 0.00070575 0.00022951 0.01961229 0.00590207   -0.0505712 ----
   621   0   0   F    F  1.21D+00 0.00070575 0.00022951 0.02373233 0.00714194   -0.0505831 ----
   622   0   0   F    T  5.69D+00 0.00100556 0.00028856 0.04287058 0.01304401   -0.0505882 ----
   623   0   0   T    F  2.32D-01 0.00100556 0.00028856 0.00994366 0.00302551   -0.0505489 ----
   624   0   0   F    T  1.75D+01 0.00021749 0.00007497 0.00929872 0.00302551   -0.0505922 -+--
   625   0   0   T    F  3.16D-01 0.00021749 0.00007497 0.00293580 0.00095522   -0.0505880 -+--
   626   0   0   F    T  1.22D+00 0.00052011 0.00015830 0.00301164 0.00095522   -0.0505933 ----
   627   0   0   F    F  1.28D+01 0.00052011 0.00015830 0.03865611 0.01226074   -0.0505954 ----
   628   0   0   F    T  5.48D+00 0.00082737 0.00027822 0.03944055 0.01321595   -0.0506084 ----
   629   0   0   T    F  3.40D-01 0.00082737 0.00027822 0.01341471 0.00449507   -0.0505944 ----
   630   0   0   F    T  3.64D+00 0.00064607 0.00019649 0.01398637 0.00449507   -0.0506136 ----
   631   0   0   F    F  5.27D-01 0.00064607 0.00019649 0.00737757 0.00237108   -0.0506205 ----
   632   0   0   F    T  1.10D+01 0.00054777 0.00013712 0.02035648 0.00686615   -0.0506214 ----
   633   0   0   T    F  1.23D-01 0.00054777 0.00013712 0.00250143 0.00084372   -0.0505758 ----
   634   0   0   F    T  5.09D+00 0.00019957 0.00006766 0.00279102 0.00084372   -0.0506223 -+--
   635   0   0   F    F  2.43D+00 0.00019957 0.00006766 0.00677419 0.00204783   -0.0506237 -+--
   636   0   0   F    T  1.16D+00 0.00099455 0.00026163 0.00958724 0.00289155   -0.0506252 ----
   637   0   0   F    F  6.26D+00 0.00099455 0.00026163 0.06004701 0.01811041   -0.0506305 ----
   638   0   0   F    F -9.55D-03 0.00099455 0.00026163 0.00057348 0.00017296   -0.0506458 ---+
   639   0   0   F    T  1.29D+01 0.00062396 0.00019775 0.06742471 0.02082899   -0.0506458 ----
   640   0   0   T    F  1.56D-01 0.00062396 0.00019775 0.01048509 0.00323908   -0.0505642 ----
   641   0   0   F    T  3.08D+00 0.00069752 0.00015986 0.01015814 0.00323908   -0.0506486 ----
   642   0   0   F    F  3.64D-01 0.00069752 0.00015986 0.00369671 0.00117875   -0.0506522 ----
   643   0   0   F    T  1.29D+01 0.00035871 0.00008981 0.01316959 0.00441783   -0.0506525 ----
   644   0   0   T    F  1.51D-01 0.00035871 0.00008981 0.00199257 0.00066842   -0.0506352 ----
   645   0   0   F    T  2.17D+00 0.00030569 0.00008348 0.00196141 0.00066842   -0.0506531 ----
   646   0   0   F    F  1.32D+01 0.00030569 0.00008348 0.02590463 0.00882795   -0.0506541 ----
   647   0   0   F    T  1.56D+00 0.00101964 0.00037131 0.02790889 0.00949637   -0.0506608 ----
   648   0   0   F    F  9.39D-01 0.00101964 0.00037131 0.02619464 0.00891308   -0.0506722 ----
   649   0   0   F    T  2.32D+01 0.00042578 0.00013379 0.05889698 0.01840945   -0.0506756 ----
   650   0   0   T    F  9.80D-02 0.00042578 0.00013379 0.00577032 0.00180363   -0.0505539 ----
   651   0   0   F    T  2.59D+00 0.00036748 0.00012397 0.00607444 0.00180363   -0.0506771 ----
   652   0   0   F    F  5.44D-01 0.00036748 0.00012397 0.00330334 0.00098083   -0.0506790 ----
   653   0   0   F    T  1.02D+01 0.00023249 0.00007582 0.00833222 0.00278446   -0.0506793 ----
   654   0   0   T    F  4.54D-01 0.00023249 0.00007582 0.00378075 0.00126345   -0.0506789 ----
   655   0   0   F    T  1.35D+00 0.00042397 0.00013970 0.00360968 0.00126345   -0.0506803 ----
   656   0   0   F    F  2.32D+01 0.00042397 0.00013970 0.08376389 0.02931888   -0.0506821 ----
   657   0   0   F    F -3.44D-02 0.00042397 0.00013970 0.00288129 0.00100850   -0.0507021 ----
   658   0   0   F    T  3.64D+00 0.00155129 0.00041531 0.08308523 0.02957383   -0.0507021 ----
   659   0   0   T    F  3.69D-01 0.00155129 0.00041531 0.03062774 0.01090181   -0.0506846 ----
   660   0   0   F    T  2.22D+01 0.00034358 0.00011593 0.02959214 0.01090181   -0.0507105 ----
   661   0   0   T    F  2.62D-01 0.00034358 0.00011593 0.00774715 0.00285407   -0.0506912 ----
   662   0   0   F    T  2.77D+00 0.00055114 0.00016669 0.00804375 0.00285407   -0.0507133 ----
   663   0   0   F    F -1.84D-01 0.00055114 0.00016669 0.00147808 0.00052445   -0.0507154 ----
   664   0   0   F    T  5.37D+00 0.00040179 0.00010641 0.00678898 0.00232962   -0.0507156 ----
   665   0   0   F    F  3.34D+00 0.00040179 0.00010641 0.02266647 0.00777793   -0.0507194 ----
   666   0   0   F    T  1.43D+00 0.00169962 0.00043014 0.02975729 0.01010754   -0.0507251 ----
   667   0   0   F    F  1.26D+00 0.00169962 0.00043014 0.03763164 0.01278219   -0.0507398 ----
   668   0   0   F    F -1.25D-02 0.00169962 0.00043014 0.00047197 0.00016031   -0.0507464 ---+
[...]
   689   0   0   F    T  1.98D+01 0.00008490 0.00002908 0.00272141 0.00094933   -0.0507835 ++--
   690   0   0   F    F -1.13D-01 0.00008490 0.00002908 0.00030779 0.00010737   -0.0507841 ++++
   691   0   0   F    T  1.25D+00 0.00038197 0.00010826 0.00243078 0.00084196   -0.0507841 ----
   692   0   0   F    F  4.86D+00 0.00038197 0.00010826 0.01180362 0.00408848   -0.0507850 ----
   693   0   0   F    T  8.70D+00 0.00024888 0.00009847 0.01229606 0.00493044   -0.0507872 ----
   694   0   0   T    F  2.65D-01 0.00024888 0.00009847 0.00325874 0.00130668   -0.0507818 ----
   695   0   0   F    T  2.29D+00 0.00029459 0.00009795 0.00312800 0.00130668   -0.0507880 ----
   696   0   0   F    F  6.53D-01 0.00029459 0.00009795 0.00204367 0.00085372   -0.0507891 ----
   697   0   0   F    T  2.81D+01 0.00012094 0.00003381 0.00563049 0.00216040   -0.0507893 -+--
   698   0   0   T    F  6.81D-02 0.00012094 0.00003381 0.00038342 0.00014712   -0.0507746 -+++
   699   0   0   F    T  2.15D+00 0.00009333 0.00003018 0.00041081 0.00014712   -0.0507893 ====
 Energy=   -5.078934477E-02 NIter=   0.
 Dipole moment=       0.890739       2.297447       0.000000
 ***** Axes restored to original set *****
 -------------------------------------------------------------------
 Center     Atomic                   Forces (Hartrees/Bohr)
 Number     Number              X              Y              Z
 -------------------------------------------------------------------
      1        8          -0.000012207   -0.000009169    0.000000000
      2        1           0.000017533   -0.000053099    0.000000000
      3        1           0.000014250   -0.000004519    0.000000000
      4        8          -0.000005665    0.000010670    0.000000000
      5        1          -0.000041161    0.000043722    0.000000000
      6        1          -0.000035501   -0.000013233    0.000000000
      7        8           0.000069419   -0.000030245    0.000000000
      8        1           0.000021464   -0.000034220    0.000000000
      9        1           0.000043189   -0.000019854    0.000000000
     10        8          -0.000035584    0.000025745    0.000000000
     11        1          -0.000036760   -0.000010269    0.000000000
     12        1          -0.000015788   -0.000031626    0.000000000
     13        8          -0.000041686   -0.000037372    0.000000000
     14        1           0.000039862   -0.000002074    0.000000000
     15        1          -0.000044582    0.000026570    0.000000000
     16        8           0.000050561    0.000029150    0.000000000
     17        1           0.000001869    0.000028201    0.000000000
     18        1           0.000004632    0.000097626    0.000000000
     19        8           0.000014304   -0.000010203    0.000000000
     20        1           0.000022856   -0.000011760    0.000000000
     21        1          -0.000012104    0.000015865    0.000000000
     22        8           0.000033367    0.000067677    0.000000000
     23        1          -0.000094625   -0.000022222    0.000000000
     24        1           0.000042357   -0.000055362    0.000000000
 -------------------------------------------------------------------
 Cartesian Forces:  Max     0.000097626 RMS     0.000030179

 GradGradGradGradGradGradGradGradGradGradGradGradGradGradGradGradGradGrad
 Berny optimization.
 Search for a local minimum.
 Step number   1 out of a maximum of    2
 All quantities printed in internal units (Hartrees-Bohrs-Radians)
 Mixed Optimization -- En-DIIS/RFO-DIIS
 Second derivative matrix not updated -- unit matrix used.
 ITU=  0
 RFO step:  Lambda=-6.55771877D-08 EMin= 1.00000000D+00
 ClnCor:  largest displacement from symmetrization is 3.03D-20 for atom    23.
 Linear search not attempted -- first point.
 ClnCor:  largest displacement from symmetrization is 3.97D-15 for atom    12.
 TrRot=  0.000000  0.000000  0.000000  0.000000  0.000000  0.000000
 Variable       Old X    -DE/DX   Delta X   Delta X   Delta X     New X
                                 (Linear)    (Quad)   (Total)
    X1       -8.97416  -0.00001   0.00000  -0.00001  -0.00001  -8.97418
    Y1        5.30902  -0.00001   0.00000  -0.00001  -0.00001   5.30901
    Z1        0.00000   0.00000   0.00000   0.00000   0.00000   0.00000
    X2       -8.05394   0.00002   0.00000   0.00002   0.00002  -8.05392
    Y2        6.94477  -0.00005   0.00000  -0.00005  -0.00005   6.94472
    Z2        0.00000   0.00000   0.00000   0.00000   0.00000   0.00000
    X3      -10.75811   0.00001   0.00000   0.00001   0.00001 -10.75810
    Y3        5.89407   0.00000   0.00000   0.00000   0.00000   5.89407
    Z3        0.00000   0.00000   0.00000   0.00000   0.00000   0.00000
    X4      -11.93784  -0.00001   0.00000  -0.00001  -0.00001 -11.93785
    Y4       -0.85575   0.00001   0.00000   0.00001   0.00001  -0.85574
    Z4        0.00000   0.00000   0.00000   0.00000   0.00000   0.00000
    X5      -10.42047  -0.00004   0.00000  -0.00004  -0.00004 -10.42051
    Y5       -1.95732   0.00004   0.00000   0.00004   0.00004  -1.95727
    Z5        0.00000   0.00000   0.00000   0.00000   0.00000   0.00000
    X6      -11.19259  -0.00004   0.00000  -0.00004  -0.00004 -11.19262
    Y6        0.86256  -0.00001   0.00000  -0.00001  -0.00001   0.86255
    Z6        0.00000   0.00000   0.00000   0.00000   0.00000   0.00000
    X7        1.81243   0.00007   0.00000   0.00007   0.00007   1.81250
    Y7        5.47211  -0.00003   0.00000  -0.00003  -0.00003   5.47208
    Z7        0.00000   0.00000   0.00000   0.00000   0.00000   0.00000
    X8        1.01952   0.00002   0.00000   0.00002   0.00002   1.01954
    Y8        3.76717  -0.00003   0.00000  -0.00003  -0.00003   3.76714
    Z8        0.00000   0.00000   0.00000   0.00000   0.00000   0.00000
    X9        0.34701   0.00004   0.00000   0.00004   0.00004   0.34706
    Y9        6.63543  -0.00002   0.00000  -0.00002  -0.00002   6.63541
    Z9        0.00000   0.00000   0.00000   0.00000   0.00000   0.00000
   X10      -10.81631  -0.00004   0.00000  -0.00004  -0.00004 -10.81635
   Y10       10.86262   0.00003   0.00000   0.00003   0.00003  10.86265
   Z10        0.00000   0.00000   0.00000   0.00000   0.00000   0.00000
   X11       -9.92449  -0.00004   0.00000  -0.00004  -0.00004  -9.92452
   Y11       12.51220  -0.00001   0.00000  -0.00001  -0.00001  12.51219
   Z11        0.00000   0.00000   0.00000   0.00000   0.00000   0.00000
   X12      -12.62926  -0.00002   0.00000  -0.00002  -0.00002 -12.62928
   Y12       11.34336  -0.00003   0.00000  -0.00003  -0.00003  11.34333
   Z12        0.00000   0.00000   0.00000   0.00000   0.00000   0.00000
   X13       -3.01673  -0.00004   0.00000  -0.00004  -0.00004  -3.01677
   Y13       -6.12019  -0.00004   0.00000  -0.00004  -0.00004  -6.12023
   Z13        0.00000   0.00000   0.00000   0.00000   0.00000   0.00000
   X14       -4.55480   0.00004   0.00000   0.00004   0.00004  -4.55476
   Y14       -5.04020   0.00000   0.00000   0.00000   0.00000  -5.04020
   Z14        0.00000   0.00000   0.00000   0.00000   0.00000   0.00000
   X15       -3.70214  -0.00004   0.00000  -0.00004  -0.00004  -3.70218
   Y15       -7.86258   0.00003   0.00000   0.00003   0.00003  -7.86255
   Z15        0.00000   0.00000   0.00000   0.00000   0.00000   0.00000
   X16        0.63471   0.00005   0.00000   0.00005   0.00005   0.63476
   Y16       -0.92028   0.00003   0.00000   0.00003   0.00003  -0.92025
   Z16        0.00000   0.00000   0.00000   0.00000   0.00000   0.00000
   X17        2.51658   0.00000   0.00000   0.00000   0.00000   2.51658
   Y17       -0.93122   0.00003   0.00000   0.00003   0.00003  -0.93119
   Z17        0.00000   0.00000   0.00000   0.00000   0.00000   0.00000
   X18        0.22170   0.00000   0.00000   0.00000   0.00000   0.22170
   Y18       -2.75640   0.00010   0.00000   0.00010   0.00010  -2.75630
   Z18        0.00000   0.00000   0.00000   0.00000   0.00000   0.00000
   X19        6.62094   0.00001   0.00000   0.00001   0.00001   6.62095
   Y19        1.32393  -0.00001   0.00000  -0.00001  -0.00001   1.32392
   Z19        0.00000   0.00000   0.00000   0.00000   0.00000   0.00000
   X20        8.45699   0.00002   0.00000   0.00002   0.00002   8.45702
   Y20        1.68739  -0.00001   0.00000  -0.00001  -0.00001   1.68738
   Z20        0.00000   0.00000   0.00000   0.00000   0.00000   0.00000
   X21        5.83599  -0.00001   0.00000  -0.00001  -0.00001   5.83598
   Y21        3.03258   0.00002   0.00000   0.00002   0.00002   3.03260
   Z21        0.00000   0.00000   0.00000   0.00000   0.00000   0.00000
   X22       -5.88691   0.00003   0.00000   0.00003   0.00003  -5.88687
   Y22       -0.41065   0.00007   0.00000   0.00007   0.00007  -0.41058
   Z22        0.00000   0.00000   0.00000   0.00000   0.00000   0.00000
   X23       -4.01049  -0.00009   0.00000  -0.00009  -0.00009  -4.01059
   Y23       -0.29841  -0.00002   0.00000  -0.00002  -0.00002  -0.29844
   Z23        0.00000   0.00000   0.00000   0.00000   0.00000   0.00000
   X24       -6.40266   0.00004   0.00000   0.00004   0.00004  -6.40262
   Y24        1.39601  -0.00006   0.00000  -0.00006  -0.00006   1.39595
   Z24        0.00000   0.00000   0.00000   0.00000   0.00000   0.00000
         Item               Value     Threshold  Converged?
 Maximum Force            0.000098     0.000450     YES
 RMS     Force            0.000030     0.000300     YES
 Maximum Displacement     0.000098     0.001800     YES
 RMS     Displacement     0.000030     0.001200     YES
 Predicted change in Energy=-3.278859D-08
 Optimization completed.
    -- Stationary point found.
 GradGradGradGradGradGradGradGradGradGradGradGradGradGradGradGradGradGrad

                          Input orientation:                          
 ---------------------------------------------------------------------
 Center     Atomic      Atomic             Coordinates (Angstroms)
 Number     Number       Type             X           Y           Z
 ---------------------------------------------------------------------
      1          8    10081003       -4.748923    2.809411    0.000000
      2          1    10011000       -4.261960    3.675013    0.000000
      3          1    10011000       -5.692949    3.119008    0.000000
      4          8    10081003       -6.317233   -0.452842    0.000000
      5          1    10011000       -5.514275   -1.035768    0.000000
      6          1    10011000       -5.922862    0.456447    0.000000
      7          8    10081003        0.959096    2.895717    0.000000
      8          1    10011000        0.539506    1.993500    0.000000
      9          1    10011000        0.183631    3.511316    0.000000
     10          8    10081003       -5.723745    5.748253    0.000000
     11          1    10011000       -5.251813    6.621174    0.000000
     12          1    10011000       -6.683117    6.002649    0.000000
     13          8    10081003       -1.596385   -3.238664    0.000000
     14          1    10011000       -2.410296   -2.667159    0.000000
     15          1    10011000       -1.959087   -4.160698    0.000000
     16          8    10081003        0.335875   -0.486993    0.000000
     17          1    10011000        1.331715   -0.492780    0.000000
     18          1    10011000        0.117318   -1.458624    0.000000
     19          8    10081003        3.503648    0.700596    0.000000
     20          1    10011000        4.475248    0.892929    0.000000
     21          1    10011000        3.088272    1.604774    0.000000
     22          8    10081003       -3.115217   -0.217305    0.000000
     23          1    10011000       -2.122262   -0.157914    0.000000
     24          1    10011000       -3.388144    0.738737    0.000000
 ---------------------------------------------------------------------
                    Distance matrix (angstroms):
                    1          2          3          4          5
     1  O    0.000000
     2  H    0.993177   0.000000
     3  H    0.993497   1.535211   0.000000
     4  O    3.619654   4.611218   3.625996   0.000000
     5  H    3.920608   4.874398   4.158617   0.992243   0.000000
     6  H    2.629558   3.621846   2.672470   0.991128   1.547142
     7  O    5.708671   5.278894   6.655791   8.009857   7.573711
     8  H    5.350999   5.087392   6.333267   7.280073   6.769396
     9  H    4.982244   4.448604   5.889661   7.614183   7.289863
    10  O    3.096299   2.536758   2.629425   6.229431   6.787255
    11  H    3.844793   3.108001   3.529839   7.153797   7.661439
    12  H    3.733346   3.358554   3.048903   6.465851   7.134810
    13  O    6.820389   7.409739   7.563190   5.481534   4.494731
    14  H    5.954998   6.606952   6.652484   4.490808   3.506582
    15  H    7.507703   8.167104   8.181433   5.722030   4.733343
    16  O    6.059822   6.201804   7.024953   6.653196   5.875832
    17  H    6.919438   6.975650   7.898792   7.649052   6.867489
    18  H    6.472745   6.747763   7.396886   6.512684   5.647446
    19  O    8.517748   8.315757   9.509265   9.888383   9.183566
    20  H    9.421158   9.169448  10.409018  10.876063  10.174008
    21  H    7.929236   7.636216   8.910823   9.627945   8.998682
    22  O    3.439477   4.057728   4.216123   3.210667   2.534829
    23  H    3.962874   4.389720   4.846445   4.205326   3.503766
    24  H    2.477784   3.063539   3.313280   3.162187   2.769350
                    6          7          8          9         10
     6  H    0.000000
     7  O    7.301464   0.000000
     8  H    6.642645   0.995013   0.000000
     9  H    6.827993   0.990105   1.558978   0.000000
    10  O    5.295551   7.266177   7.302499   6.316722   0.000000
    11  H    6.201142   7.242541   7.413146   6.262209   0.992326
    12  H    5.598066   8.249632   8.260723   7.304722   0.992527
    13  O    5.689662   6.645383   5.651334   6.980737   9.889377
    14  H    4.700535   6.503722   5.515712   6.700897   9.044231
    15  H    6.085190   7.636019   6.642072   7.965616  10.599998
    16  O    6.329445   3.439641   2.488837   4.001206   8.694670
    17  H    7.316414   3.408923   2.609441   4.165439   9.419661
    18  H    6.336503   4.434961   3.477845   4.970383   9.276697
    19  O    9.429672   3.360551   3.233843   4.350018  10.517777
    20  H   10.407267   4.046540   4.086725   5.027318  11.295735
    21  H    9.084008   2.489965   2.578239   3.474456   9.737560
    22  O    2.887354   5.127468   4.271377   4.978455   6.510937
    23  H    3.849935   4.338136   3.422513   4.333635   6.917622
    24  H    2.550389   4.852943   4.123210   4.521590   5.527232
                   11         12         13         14         15
    11  H    0.000000
    12  H    1.559232   0.000000
    13  O   10.515634  10.548777   0.000000
    14  H    9.713256   9.665535   0.994520   0.000000
    15  H   11.273455  11.207590   0.990807   1.560207   0.000000
    16  O    9.041476   9.559377   3.362339   3.506363   4.331623
    17  H    9.692841  10.316400   4.014181   4.327884   4.927779
    18  H    9.701067  10.095371   2.470895   2.801677   3.407736
    19  O   10.569358  11.483986   6.444231   6.805624   7.312569
    20  H   11.288423  12.272666   7.344031   7.751448   8.181676
    21  H    9.732486  10.715472   6.738317   6.963022   7.662670
    22  O    7.164484   7.170616   3.381636   2.549255   4.109378
    23  H    7.466600   7.665111   3.125311   2.525723   4.006108
    24  H    6.170602   6.210122   4.362352   3.543489   5.103593
                   16         17         18         19         20
    16  O    0.000000
    17  H    0.995857   0.000000
    18  H    0.995909   1.551649   0.000000
    19  O    3.383069   2.478193   4.016150   0.000000
    20  H    4.363324   3.435402   4.951904   0.990453   0.000000
    21  H    3.457048   2.735914   4.267432   0.995025   1.558982
    22  O    3.461613   4.455456   3.462681   6.682209   7.671230
    23  H    2.480066   3.470171   2.589897   5.691037   6.680674
    24  H    3.920552   4.877878   4.137228   6.891897   7.864903
                   21         22         23         24
    21  H    0.000000
    22  O    6.465543   0.000000
    23  H    5.500613   0.994730   0.000000
    24  H    6.534064   0.994236   1.551270   0.000000
 Stoichiometry    H16O8
 Framework group  CS[SG(H16O8)]
 Deg. of freedom    45
 Full point group                 CS      NOp   2
 Largest Abelian subgroup         CS      NOp   2
 Largest concise Abelian subgroup C1      NOp   1
                         Standard orientation:                         
 ---------------------------------------------------------------------
 Center     Atomic      Atomic             Coordinates (Angstroms)
 Number     Number       Type             X           Y           Z
 ---------------------------------------------------------------------
      1          8    10081003       -2.710952   -1.723273    0.000000
      2          1    10011000       -2.249096   -2.602528    0.000000
      3          1    10011000       -3.663495   -2.005580    0.000000
      4          8    10081003       -4.184749    1.582754    0.000000
      5          1    10011000       -3.365350    2.142336    0.000000
      6          1    10011000       -3.816704    0.662495    0.000000
      7          8    10081003        2.992220   -1.973779    0.000000
      8          1    10011000        2.598764   -1.059863    0.000000
      9          1    10011000        2.199364   -2.566811    0.000000
     10          8    10081003       -3.769929   -4.632850    0.000000
     11          1    10011000       -3.323308   -5.518988    0.000000
     12          1    10011000       -4.736223   -4.859537    0.000000
     13          8    10081003        0.614301    4.231591    0.000000
     14          1    10011000       -0.215717    3.683741    0.000000
     15          1    10011000        0.278278    5.163679    0.000000
     16          8    10081003        2.466587    1.425462    0.000000
     17          1    10011000        3.462182    1.402594    0.000000
     18          1    10011000        2.276078    2.402980    0.000000
     19          8    10081003        5.598879    0.147219    0.000000
     20          1    10011000        6.564542   -0.072990    0.000000
     21          1    10011000        5.157659   -0.744633    0.000000
     22          8    10081003       -0.990835    1.255183    0.000000
     23          1    10011000        0.000000    1.167248    0.000000
     24          1    10011000       -1.291157    0.307391    0.000000
 ---------------------------------------------------------------------
 Rotational constants (GHZ):      0.5940389      0.3001814      0.1994133
 1|1|UNPC-PC105322|FOpt|RUFF|ZDO|H16O8|CHAPMANNAT|07-Apr-2023|0||# opt 
 uff geom=connectivity||Title Card Required||0,1|O,-4.7489227037,2.8094
 111654,0.|H,-4.2619597516,3.6750130738,0.|H,-5.6929492598,3.1190084757
 ,0.|O,-6.3172330631,-0.4528419352,0.|H,-5.5142745185,-1.0357683751,0.|
 H,-5.9228621286,0.4564466661,0.|O,0.9590955577,2.8957169775,0.|H,0.539
 5061167,1.9935001843,0.|H,0.1836310693,3.5113160789,0.|O,-5.7237451018
 ,5.7482530429,0.|H,-5.2518125333,6.6211736049,0.|H,-6.6831165175,6.002
 6487376,0.|O,-1.5963847376,-3.2386642854,0.|H,-2.410296388,-2.66715937
 81,0.|H,-1.9590874145,-4.1606979916,0.|O,0.3358749386,-0.4869929545,0.
 |H,1.3317149952,-0.4927795132,0.|H,0.1173182525,-1.4586241349,0.|O,3.5
 036481847,0.7005961987,0.|H,4.4752476969,0.8929292536,0.|H,3.088272425
 8,1.604774435,0.|O,-3.1152168794,-0.2173048581,0.|H,-2.1222617486,-0.1
 579143656,0.|H,-3.388143682,0.7387365784,0.||Version=IA32W-G09RevB.01|
 HF=-0.0507893|RMSD=0.000e+000|RMSF=3.018e-005|Dipole=-0.051462,2.46353
 96,0.|PG=CS [SG(H16O8)]||@


 DESK:  A WASTEBASKET WITH DRAWERS.
 Job cpu time:  0 days  0 hours  0 minutes  9.0 seconds.
 File lengths (MBytes):  RWF=      5 Int=      0 D2E=      0 Chk=      1 Scr=      1
 Normal termination of Gaussian 09 at Fri Apr 07 11:09:37 2023.
