 Entering Link 1 = C:\G09W\l1.exe PID=     10088.
  
 Copyright (c) 1988,1990,1992,1993,1995,1998,2003,2009,2010,
            Gaussian, Inc.  All Rights Reserved.
  
 This is part of the Gaussian(R) 09 program.  It is based on
 the Gaussian(R) 03 system (copyright 2003, Gaussian, Inc.),
 the Gaussian(R) 98 system (copyright 1998, Gaussian, Inc.),
 the Gaussian(R) 94 system (copyright 1995, Gaussian, Inc.),
 the Gaussian 92(TM) system (copyright 1992, Gaussian, Inc.),
 the Gaussian 90(TM) system (copyright 1990, Gaussian, Inc.),
 the Gaussian 88(TM) system (copyright 1988, Gaussian, Inc.),
 the Gaussian 86(TM) system (copyright 1986, Carnegie Mellon
 University), and the Gaussian 82(TM) system (copyright 1983,
 Carnegie Mellon University). Gaussian is a federally registered
 trademark of Gaussian, Inc.
  
 This software contains proprietary and confidential information,
 including trade secrets, belonging to Gaussian, Inc.
  
 This software is provided under written license and may be
 used, copied, transmitted, or stored only in accord with that
 written license.
  
 The following legend is applicable only to US Government
 contracts under FAR:
  
                    RESTRICTED RIGHTS LEGEND
  
 Use, reproduction and disclosure by the US Government is
 subject to restrictions as set forth in subparagraphs (a)
 and (c) of the Commercial Computer Software - Restricted
 Rights clause in FAR 52.227-19.
  
 Gaussian, Inc.
 340 Quinnipiac St., Bldg. 40, Wallingford CT 06492
  
  
 ---------------------------------------------------------------
 Warning -- This program may not be used in any manner that
 competes with the business of Gaussian, Inc. or will provide
 assistance to any competitor of Gaussian, Inc.  The licensee
 of this program is prohibited from giving any competitor of
 Gaussian, Inc. access to this program.  By using this program,
 the user acknowledges that Gaussian, Inc. is engaged in the
 business of creating and licensing software in the field of
 computational chemistry and represents and warrants to the
 licensee that it is not a competitor of Gaussian, Inc. and that
 it will not use this program in any manner prohibited above.
 ---------------------------------------------------------------
  

 Cite this work as:
 Gaussian 09, Revision B.01,
 M. J. Frisch, G. W. Trucks, H. B. Schlegel, G. E. Scuseria, 
 M. A. Robb, J. R. Cheeseman, G. Scalmani, V. Barone, B. Mennucci, 
 G. A. Petersson, H. Nakatsuji, M. Caricato, X. Li, H. P. Hratchian, 
 A. F. Izmaylov, J. Bloino, G. Zheng, J. L. Sonnenberg, M. Hada, 
 M. Ehara, K. Toyota, R. Fukuda, J. Hasegawa, M. Ishida, T. Nakajima, 
 Y. Honda, O. Kitao, H. Nakai, T. Vreven, J. A. Montgomery, Jr., 
 J. E. Peralta, F. Ogliaro, M. Bearpark, J. J. Heyd, E. Brothers, 
 K. N. Kudin, V. N. Staroverov, T. Keith, R. Kobayashi, J. Normand, 
 K. Raghavachari, A. Rendell, J. C. Burant, S. S. Iyengar, J. Tomasi, 
 M. Cossi, N. Rega, J. M. Millam, M. Klene, J. E. Knox, J. B. Cross, 
 V. Bakken, C. Adamo, J. Jaramillo, R. Gomperts, R. E. Stratmann, 
 O. Yazyev, A. J. Austin, R. Cammi, C. Pomelli, J. W. Ochterski, 
 R. L. Martin, K. Morokuma, V. G. Zakrzewski, G. A. Voth, 
 P. Salvador, J. J. Dannenberg, S. Dapprich, A. D. Daniels, 
 O. Farkas, J. B. Foresman, J. V. Ortiz, J. Cioslowski, 
 and D. J. Fox, Gaussian, Inc., Wallingford CT, 2010.
 
 ******************************************
 Gaussian 09:  IA32W-G09RevB.01 12-Aug-2010
                17-Apr-2023 
 ******************************************
 --------------------
 # opt HF/aug-cc-pVQZ
 --------------------
 1/18=20,19=15,38=1/1,3;
 2/9=110,12=2,17=6,18=5,40=1/2;
 3/5=16,6=2,7=10,11=9,16=1,25=1,30=1,71=1/1,2,3;
 4//1;
 5/5=2,38=5/2;
 6/7=2,8=2,9=2,10=2,28=1/1;
 7//1,2,3,16;
 1/18=20,19=15/3(2);
 2/9=110/2;
 99//99;
 2/9=110/2;
 3/5=16,6=2,7=10,11=9,16=1,25=1,30=1,71=1/1,2,3;
 4/5=5,16=3/1;
 5/5=2,38=5/2;
 7//1,2,3,16;
 1/18=20,19=15/3(-5);
 2/9=110/2;
 6/7=2,8=2,9=2,10=2,19=2,28=1/1;
 99/9=1/99;
 --------
 Flourine
 --------
 Symbolic Z-matrix:
 Charge =  0 Multiplicity = 2
 F
 

 GradGradGradGradGradGradGradGradGradGradGradGradGradGradGradGradGradGrad
 Berny optimization.
 Initialization pass.
 No Z-matrix variables, so optimization will use Cartesian coordinates.
 Trust Radius=1.00D-01 FncErr=1.00D-07 GrdErr=1.00D-07
 Number of steps in this run=     20 maximum allowed number of steps=    100.
 GradGradGradGradGradGradGradGradGradGradGradGradGradGradGradGradGradGrad

                          Input orientation:                          
 ---------------------------------------------------------------------
 Center     Atomic      Atomic             Coordinates (Angstroms)
 Number     Number       Type             X           Y           Z
 ---------------------------------------------------------------------
      1          9           0        0.000000    0.000000    0.000000
 ---------------------------------------------------------------------
 Stoichiometry    F(2)
 Framework group  OH[O(F)]
 Deg. of freedom     0
 Full point group                 OH      NOp  48
 Largest Abelian subgroup         D2H     NOp   8
 Largest concise Abelian subgroup C1      NOp   1
                         Standard orientation:                         
 ---------------------------------------------------------------------
 Center     Atomic      Atomic             Coordinates (Angstroms)
 Number     Number       Type             X           Y           Z
 ---------------------------------------------------------------------
      1          9           0        0.000000    0.000000    0.000000
 ---------------------------------------------------------------------
 Standard basis: Aug-CC-pVQZ (5D, 7F)
 There are    20 symmetry adapted basis functions of AG  symmetry.
 There are     8 symmetry adapted basis functions of B1G symmetry.
 There are     8 symmetry adapted basis functions of B2G symmetry.
 There are     8 symmetry adapted basis functions of B3G symmetry.
 There are     3 symmetry adapted basis functions of AU  symmetry.
 There are    11 symmetry adapted basis functions of B1U symmetry.
 There are    11 symmetry adapted basis functions of B2U symmetry.
 There are    11 symmetry adapted basis functions of B3U symmetry.
 Integral buffers will be    262144 words long.
 Raffenetti 2 integral format.
 Two-electron integral symmetry is turned on.
    80 basis functions,   124 primitive gaussians,   105 cartesian basis functions
     5 alpha electrons        4 beta electrons
       nuclear repulsion energy         0.0000000000 Hartrees.
 NAtoms=    1 NActive=    1 NUniq=    1 SFac= 1.00D+00 NAtFMM=   50 NAOKFM=F Big=F
 One-electron integrals computed using PRISM.
 NBasis=    80 RedAO= T  NBF=    20     8     8     8     3    11    11    11
 NBsUse=    80 1.00D-06 NBFU=    20     8     8     8     3    11    11    11
 Harris functional with IExCor=  205 diagonalized for initial guess.
 ExpMin= 6.57D-02 ExpMax= 7.45D+04 ExpMxC= 2.54D+03 IAcc=2 IRadAn=         0 AccDes= 0.00D+00
 HarFok:  IExCor=  205 AccDes= 0.00D+00 IRadAn=         0 IDoV= 1
 ScaDFX=  1.000000  1.000000  1.000000  1.000000
 FoFCou: FMM=F IPFlag=           0 FMFlag=      100000 FMFlg1=           0
         NFxFlg=           0 DoJE=T BraDBF=F KetDBF=T FulRan=T
         Omega=  0.000000  0.000000  1.000000  0.000000  0.000000 ICntrl=     500 IOpCl=  0
         NMat0=    1 NMatS0=    1 NMatT0=    0 NMatD0=    1 NMtDS0=    0 NMtDT0=    0
         I1Cent=           4 NGrid=           0.
 Petite list used in FoFCou.
 Initial guess orbital symmetries:
 Alpha Orbitals:
       Occupied  (A1G) (A1G) (T1U) (T1U) (T1U)
       Virtual   (A1G) (T1U) (T1U) (T1U) (EG) (EG) (T2G) (T2G)
                 (T2G) (T1U) (T1U) (T1U) (A1G) (?A) (?A) (A2U)
                 (?A) (?A) (?A) (?A) (T2G) (T2G) (T2G) (EG) (EG)
                 (T1U) (T1U) (T1U) (A1G) (EG) (EG) (T2G) (T2G)
                 (T2G) (T1G) (T1G) (T1G) (A1G) (A2U) (?A) (?A)
                 (?A) (?A) (?A) (?A) (EG) (EG) (T2G) (T2G) (T2G)
                 (T1U) (T1U) (T1U) (A1G) (EG) (EG) (T2G) (T2G)
                 (T2G) (T1G) (T1G) (T1G) (?A) (?A) (?A) (A2U) (?A)
                 (?A) (?A) (EG) (EG) (T2G) (T2G) (T2G) (A1G)
 Beta  Orbitals:
       Occupied  (A1G) (A1G) (T1U) (T1U)
       Virtual   (T1U) (A1G) (T1U) (T1U) (T1U) (EG) (EG) (T2G)
                 (T2G) (T2G) (T1U) (T1U) (T1U) (A1G) (?A) (?A)
                 (A2U) (?A) (?A) (?A) (?A) (T2G) (T2G) (T2G) (EG)
                 (EG) (T1U) (T1U) (T1U) (A1G) (EG) (EG) (T2G) (T2G)
                 (T2G) (T1G) (T1G) (T1G) (A1G) (A2U) (?A) (?A)
                 (?A) (?A) (?A) (?A) (EG) (EG) (T2G) (T2G) (T2G)
                 (T1U) (T1U) (T1U) (A1G) (EG) (EG) (T2G) (T2G)
                 (T2G) (T1G) (T1G) (T1G) (?A) (?A) (?A) (A2U) (?A)
                 (?A) (?A) (EG) (EG) (T2G) (T2G) (T2G) (A1G)
 Initial guess <Sx>= 0.0000 <Sy>= 0.0000 <Sz>= 0.5000 <S**2>= 0.7500 S= 0.5000
 Requested convergence on RMS density matrix=1.00D-08 within 128 cycles.
 Requested convergence on MAX density matrix=1.00D-06.
 Requested convergence on             energy=1.00D-06.
 No special actions if energy rises.
 Integral accuracy reduced to 1.0D-05 until final iterations.
 Density matrix breaks symmetry, PCut= 1.00D-04
 Density has only Abelian symmetry.
 Density matrix breaks symmetry, PCut= 1.00D-07
 Density has only Abelian symmetry.
 Density matrix breaks symmetry, PCut= 1.00D-07
 Density has only Abelian symmetry.
 Density matrix breaks symmetry, PCut= 1.00D-07
 Density has only Abelian symmetry.
 Density matrix breaks symmetry, PCut= 1.00D-07
 Density has only Abelian symmetry.
 Density matrix breaks symmetry, PCut= 1.00D-07
 Density has only Abelian symmetry.
 Initial convergence to 1.0D-05 achieved.  Increase integral accuracy.
 Density matrix breaks symmetry, PCut= 1.00D-07
 Density has only Abelian symmetry.
 Density matrix breaks symmetry, PCut= 1.00D-07
 Density has only Abelian symmetry.
 Density matrix breaks symmetry, PCut= 1.00D-07
 Density has only Abelian symmetry.
 Density matrix breaks symmetry, PCut= 1.00D-07
 Density has only Abelian symmetry.
 Density matrix breaks symmetry, PCut= 1.00D-07
 Density has only Abelian symmetry.
 Density matrix breaks symmetry, PCut= 1.00D-07
 Density has only Abelian symmetry.
 SCF Done:  E(UHF) =  -99.4140853156     A.U. after   11 cycles
             Convg  =    0.3927D-08             -V/T =  2.0001
 <Sx>= 0.0000 <Sy>= 0.0000 <Sz>= 0.5000 <S**2>= 0.7542 S= 0.5021
 <L.S>= 0.000000000000E+00
 Annihilation of the first spin contaminant:
 S**2 before annihilation     0.7542,   after     0.7500

 **********************************************************************

            Population analysis using the SCF density.

 **********************************************************************

 Orbital symmetries:
 Alpha Orbitals:
       Occupied  (A1G) (?A) (?B) (?B) (?B)
       Virtual   (?B) (?B) (?B) (?A) (?A) (T2G) (T2G) (?A) (T2G)
                 (?B) (?B) (?B) (?A) (?B) (?B) (?B) (A2U) (?B)
                 (?B) (?B) (?A) (?C) (?C) (?A) (?C) (?B) (?B) (?B)
                 (?A) (?C) (?C) (?A) (?C) (?C) (?C) (?A) (?C) (?A)
                 (?B) (?B) (?B) (?B) (A2U) (?B) (?B) (?A) (?D)
                 (?D) (?A) (?D) (?E) (?E) (?E) (T2G) (?D) (?D)
                 (?D) (T2G) (?D) (?D) (T2G) (?D) (?E) (?E) (?E)
                 (?E) (A2U) (?E) (?E) (EG) (T2G) (T2G) (EG) (T2G)
                 (A1G)
 Beta  Orbitals:
       Occupied  (A1G) (?A) (?B) (?B)
       Virtual   (?B) (?B) (?B) (?A) (?B) (?A) (T2G) (T2G) (?A)
                 (T2G) (?B) (?B) (?B) (?A) (?B) (?B) (?B) (A2U)
                 (?B) (?B) (?B) (?A) (T2G) (T2G) (T2G) (?A) (?B)
                 (?B) (?B) (T2G) (?C) (?C) (T2G) (?C) (?C) (?C)
                 (T2G) (?C) (?A) (?B) (?B) (?B) (?B) (A2U) (?B)
                 (?B) (?A) (?C) (?C) (?C) (?A) (T1U) (T1U) (T1U)
                 (T2G) (?D) (?D) (?D) (T2G) (?D) (?D) (?D) (T2G)
                 (?E) (?E) (?E) (?E) (A2U) (?E) (?E) (EG) (T2G)
                 (T2G) (EG) (T2G) (A1G)
 Unable to determine electronic state:  an orbital has unidentified symmetry.
 Alpha  occ. eigenvalues --  -26.40804  -1.67300  -0.84547  -0.73174  -0.73174
 Alpha virt. eigenvalues --    0.16034   0.16831   0.16831   0.16981   0.61908
 Alpha virt. eigenvalues --    0.62325   0.62325   0.63621   0.63621   0.82394
 Alpha virt. eigenvalues --    0.86092   0.86092   1.10693   1.84067   1.84405
 Alpha virt. eigenvalues --    1.84405   1.85425   1.85425   1.87160   1.87160
 Alpha virt. eigenvalues --    1.95739   1.97063   1.97063   2.01286   2.01286
 Alpha virt. eigenvalues --    3.28858   3.36634   3.36634   4.65518   4.65843
 Alpha virt. eigenvalues --    4.65843   4.66822   4.66822   4.68468   4.68468
 Alpha virt. eigenvalues --    4.70803   4.70803   4.95723   5.39835   5.40644
 Alpha virt. eigenvalues --    5.40644   5.43091   5.43091   5.47253   5.47253
 Alpha virt. eigenvalues --    5.59778   5.61991   5.61991   5.68980   5.68980
 Alpha virt. eigenvalues --   12.85010  12.93465  12.93465  13.52816  13.53434
 Alpha virt. eigenvalues --   13.53434  13.55291  13.55291  13.58405  13.58405
 Alpha virt. eigenvalues --   13.62803  13.62803  15.67674  15.68868  15.68868
 Alpha virt. eigenvalues --   15.72472  15.72472  15.78557  15.78557  16.55499
 Alpha virt. eigenvalues --   16.57935  16.57935  16.65377  16.65377  52.97255
  Beta  occ. eigenvalues --  -26.35998  -1.47748  -0.67998  -0.67998
  Beta virt. eigenvalues --    0.03528   0.16984   0.16984   0.17544   0.20968
  Beta virt. eigenvalues --    0.63263   0.63294   0.63294   0.63461   0.63461
  Beta virt. eigenvalues --    0.87185   0.87185   0.94663   1.13611   1.85306
  Beta virt. eigenvalues --    1.85494   1.85494   1.86061   1.86061   1.87006
  Beta virt. eigenvalues --    1.87006   2.01655   2.01655   2.03292   2.03292
  Beta virt. eigenvalues --    2.03934   3.38954   3.38954   3.44997   4.67205
  Beta virt. eigenvalues --    4.67423   4.67423   4.68076   4.68076   4.69165
  Beta virt. eigenvalues --    4.69165   4.70691   4.70691   5.01263   5.44902
  Beta virt. eigenvalues --    5.45194   5.45194   5.46070   5.46070   5.47523
  Beta virt. eigenvalues --    5.47523   5.70691   5.70691   5.72266   5.72266
  Beta virt. eigenvalues --    5.72879  12.95721  12.95721  12.97224  13.57348
  Beta virt. eigenvalues --   13.57710  13.57710  13.58799  13.58799  13.60615
  Beta virt. eigenvalues --   13.60615  13.63162  13.63162  15.75495  15.75953
  Beta virt. eigenvalues --   15.75953  15.77327  15.77327  15.79623  15.79623
  Beta virt. eigenvalues --   16.65816  16.66145  16.66145  16.67161  16.67161
  Beta virt. eigenvalues --   53.00117
          Condensed to atoms (all electrons):
              1
     1  F    9.000000
 Mulliken atomic charges:
              1
     1  F    0.000000
 Sum of Mulliken atomic charges =   0.00000
 Mulliken charges with hydrogens summed into heavy atoms:
              1
     1  F    0.000000
 Sum of Mulliken charges with hydrogens summed into heavy atoms =   0.00000
          Atomic-Atomic Spin Densities.
              1
     1  F    1.000000
 Mulliken atomic spin densities:
              1
     1  F    1.000000
 Sum of Mulliken atomic spin densities =   1.00000
 Electronic spatial extent (au):  <R**2>=             10.2593
 Charge=              0.0000 electrons
 Dipole moment (field-independent basis, Debye):
    X=              0.0000    Y=              0.0000    Z=              0.0000  Tot=              0.0000
 Quadrupole moment (field-independent basis, Debye-Ang):
   XX=             -4.9030   YY=             -4.9030   ZZ=             -3.9932
   XY=              0.0000   XZ=              0.0000   YZ=              0.0000
 Traceless Quadrupole moment (field-independent basis, Debye-Ang):
   XX=             -0.3032   YY=             -0.3032   ZZ=              0.6065
   XY=              0.0000   XZ=              0.0000   YZ=              0.0000
 Octapole moment (field-independent basis, Debye-Ang**2):
  XXX=              0.0000  YYY=              0.0000  ZZZ=              0.0000  XYY=              0.0000
  XXY=              0.0000  XXZ=              0.0000  XZZ=              0.0000  YZZ=              0.0000
  YYZ=              0.0000  XYZ=              0.0000
 Hexadecapole moment (field-independent basis, Debye-Ang**3):
 XXXX=             -3.0750 YYYY=             -3.0750 ZZZZ=             -2.0780 XXXY=              0.0000
 XXXZ=              0.0000 YYYX=              0.0000 YYYZ=              0.0000 ZZZX=              0.0000
 ZZZY=              0.0000 XXYY=             -1.0250 XXZZ=             -0.8587 YYZZ=             -0.8587
 XXYZ=              0.0000 YYXZ=              0.0000 ZZXY=              0.0000
 N-N= 0.000000000000D+00 E-N=-3.517948070840D+02  KE= 1.472025256888D+02
 Symmetry AG   KE= 1.240022700630D+02
 Symmetry B1G  KE= 0.000000000000D+00
 Symmetry B2G  KE= 0.000000000000D+00
 Symmetry B3G  KE= 0.000000000000D+00
 Symmetry AU   KE= 0.000000000000D+00
 Symmetry B1U  KE= 3.491898249245D+00
 Symmetry B2U  KE= 9.854178688266D+00
 Symmetry B3U  KE= 9.854178688266D+00
                          Isotropic Fermi Contact Couplings
        Atom                 a.u.       MegaHertz       Gauss      10(-4) cm-1
     1  F(19)              0.03800     159.86457      57.04365      53.32508
 --------------------------------------------------------
       Center         ----  Spin Dipole Couplings  ----
                      3XX-RR        3YY-RR        3ZZ-RR
 --------------------------------------------------------
     1   Atom       -3.140323     -3.140323      6.280647
 --------------------------------------------------------
                        XY            XZ            YZ
 --------------------------------------------------------
     1   Atom        0.000000      0.000000      0.000000
 --------------------------------------------------------


 ---------------------------------------------------------------------------------
              Anisotropic Spin Dipole Couplings in Principal Axis System
 ---------------------------------------------------------------------------------

       Atom             a.u.   MegaHertz   Gauss  10(-4) cm-1        Axes

              Baa    -3.1403 -1577.151  -562.767  -526.081  1.0000  0.0000  0.0000
     1 F(19)  Bbb    -3.1403 -1577.151  -562.767  -526.081  0.0000  1.0000  0.0000
              Bcc     6.2806  3154.302  1125.533  1052.162  0.0000  0.0000  1.0000
 

 ---------------------------------------------------------------------------------

 Density matrix has only Abelian symmetry.
 Density matrix has only Abelian symmetry.
 Calling FoFJK, ICntrl=      2127 FMM=F ISym2X=1 I1Cent= 0 IOpClX= 1 NMat=1 NMatS=1 NMatT=0.
 ***** Axes restored to original set *****
 -------------------------------------------------------------------
 Center     Atomic                   Forces (Hartrees/Bohr)
 Number     Number              X              Y              Z
 -------------------------------------------------------------------
      1        9           0.000000000    0.000000000    0.000000000
 -------------------------------------------------------------------
 Cartesian Forces:  Max     0.000000000 RMS     0.000000000

 GradGradGradGradGradGradGradGradGradGradGradGradGradGradGradGradGradGrad
 Berny optimization.
 Search for a local minimum.
 Step number   1 out of a maximum of   20
 All quantities printed in internal units (Hartrees-Bohrs-Radians)
 Mixed Optimization -- En-DIIS/RFO-DIIS
 Second derivative matrix not updated -- first step.
 The second derivative matrix:
                          X1        Y1        Z1
           X1           0.00000
           Y1           0.00000   0.00000
           Z1           0.00000   0.00000   0.00000
 ITU=  0
     Eigenvalues --- 
 RFO step:  Lambda=-5.96046448D-09 EMin= 0.00000000D+00
 Linear search not attempted -- first point.
 TrRot=  0.000000  0.000000  0.000000  0.000000  0.000000  0.000000
 Variable       Old X    -DE/DX   Delta X   Delta X   Delta X     New X
                                 (Linear)    (Quad)   (Total)
    X1        0.00000   0.00000   0.00000   0.00000   0.00000   0.00000
    Y1        0.00000   0.00000   0.00000   0.00000   0.00000   0.00000
    Z1        0.00000   0.00000   0.00000   0.00000   0.00000   0.00000
         Item               Value     Threshold  Converged?
 Maximum Force            0.000000     0.000450     YES
 RMS     Force            0.000000     0.000300     YES
 Maximum Displacement     0.000000     0.001800     YES
 RMS     Displacement     0.000000     0.001200     YES
 Predicted change in Energy= 0.000000D+00
 Optimization completed.
    -- Stationary point found.
 GradGradGradGradGradGradGradGradGradGradGradGradGradGradGradGradGradGrad

                          Input orientation:                          
 ---------------------------------------------------------------------
 Center     Atomic      Atomic             Coordinates (Angstroms)
 Number     Number       Type             X           Y           Z
 ---------------------------------------------------------------------
      1          9           0        0.000000    0.000000    0.000000
 ---------------------------------------------------------------------
 Stoichiometry    F(2)
 Framework group  OH[O(F)]
 Deg. of freedom     0
 Full point group                 OH      NOp  48
 Largest Abelian subgroup         D2H     NOp   8
 Largest concise Abelian subgroup C1      NOp   1
                         Standard orientation:                         
 ---------------------------------------------------------------------
 Center     Atomic      Atomic             Coordinates (Angstroms)
 Number     Number       Type             X           Y           Z
 ---------------------------------------------------------------------
      1          9           0        0.000000    0.000000    0.000000
 ---------------------------------------------------------------------
 1|1|UNPC-PC105322|FOpt|UHF|Aug-CC-pVQZ|F1(2)|CHAPMANNAT|17-Apr-2023|0|
 |# opt HF/aug-cc-pVQZ||Flourine||0,2|F,0.,0.,0.||Version=IA32W-G09RevB
 .01|HF=-99.4140853|S2=0.754203|S2-1=0.|S2A=0.75001|RMSD=3.927e-009|RMS
 F=0.000e+000|Dipole=0.,0.,0.|Quadrupole=0.4509113,-0.2254557,-0.225455
 7,0.,0.,0.|PG=OH [O(F1)]||@


 ALL SCIENCE IS EITHER PHYSICS, OR STAMP COLLECTING.
   --ERNEST RUTHERFORD, 1871-1937.
 Job cpu time:  0 days  0 hours  0 minutes 14.0 seconds.
 File lengths (MBytes):  RWF=     10 Int=      0 D2E=      0 Chk=      1 Scr=      1
 Normal termination of Gaussian 09 at Mon Apr 17 11:52:06 2023.
