 Entering Link 1 = C:\G09W\l1.exe PID=      8816.
  
 Copyright (c) 1988,1990,1992,1993,1995,1998,2003,2009,2010,
            Gaussian, Inc.  All Rights Reserved.
  
 This is part of the Gaussian(R) 09 program.  It is based on
 the Gaussian(R) 03 system (copyright 2003, Gaussian, Inc.),
 the Gaussian(R) 98 system (copyright 1998, Gaussian, Inc.),
 the Gaussian(R) 94 system (copyright 1995, Gaussian, Inc.),
 the Gaussian 92(TM) system (copyright 1992, Gaussian, Inc.),
 the Gaussian 90(TM) system (copyright 1990, Gaussian, Inc.),
 the Gaussian 88(TM) system (copyright 1988, Gaussian, Inc.),
 the Gaussian 86(TM) system (copyright 1986, Carnegie Mellon
 University), and the Gaussian 82(TM) system (copyright 1983,
 Carnegie Mellon University). Gaussian is a federally registered
 trademark of Gaussian, Inc.
  
 This software contains proprietary and confidential information,
 including trade secrets, belonging to Gaussian, Inc.
  
 This software is provided under written license and may be
 used, copied, transmitted, or stored only in accord with that
 written license.
  
 The following legend is applicable only to US Government
 contracts under FAR:
  
                    RESTRICTED RIGHTS LEGEND
  
 Use, reproduction and disclosure by the US Government is
 subject to restrictions as set forth in subparagraphs (a)
 and (c) of the Commercial Computer Software - Restricted
 Rights clause in FAR 52.227-19.
  
 Gaussian, Inc.
 340 Quinnipiac St., Bldg. 40, Wallingford CT 06492
  
  
 ---------------------------------------------------------------
 Warning -- This program may not be used in any manner that
 competes with the business of Gaussian, Inc. or will provide
 assistance to any competitor of Gaussian, Inc.  The licensee
 of this program is prohibited from giving any competitor of
 Gaussian, Inc. access to this program.  By using this program,
 the user acknowledges that Gaussian, Inc. is engaged in the
 business of creating and licensing software in the field of
 computational chemistry and represents and warrants to the
 licensee that it is not a competitor of Gaussian, Inc. and that
 it will not use this program in any manner prohibited above.
 ---------------------------------------------------------------
  

 Cite this work as:
 Gaussian 09, Revision B.01,
 M. J. Frisch, G. W. Trucks, H. B. Schlegel, G. E. Scuseria, 
 M. A. Robb, J. R. Cheeseman, G. Scalmani, V. Barone, B. Mennucci, 
 G. A. Petersson, H. Nakatsuji, M. Caricato, X. Li, H. P. Hratchian, 
 A. F. Izmaylov, J. Bloino, G. Zheng, J. L. Sonnenberg, M. Hada, 
 M. Ehara, K. Toyota, R. Fukuda, J. Hasegawa, M. Ishida, T. Nakajima, 
 Y. Honda, O. Kitao, H. Nakai, T. Vreven, J. A. Montgomery, Jr., 
 J. E. Peralta, F. Ogliaro, M. Bearpark, J. J. Heyd, E. Brothers, 
 K. N. Kudin, V. N. Staroverov, T. Keith, R. Kobayashi, J. Normand, 
 K. Raghavachari, A. Rendell, J. C. Burant, S. S. Iyengar, J. Tomasi, 
 M. Cossi, N. Rega, J. M. Millam, M. Klene, J. E. Knox, J. B. Cross, 
 V. Bakken, C. Adamo, J. Jaramillo, R. Gomperts, R. E. Stratmann, 
 O. Yazyev, A. J. Austin, R. Cammi, C. Pomelli, J. W. Ochterski, 
 R. L. Martin, K. Morokuma, V. G. Zakrzewski, G. A. Voth, 
 P. Salvador, J. J. Dannenberg, S. Dapprich, A. D. Daniels, 
 O. Farkas, J. B. Foresman, J. V. Ortiz, J. Cioslowski, 
 and D. J. Fox, Gaussian, Inc., Wallingford CT, 2010.
 
 ******************************************
 Gaussian 09:  IA32W-G09RevB.01 12-Aug-2010
                17-Apr-2023 
 ******************************************
 --------------------
 # opt HF/aug-cc-pVQZ
 --------------------
 1/18=20,19=15,38=1/1,3;
 2/9=110,12=2,17=6,18=5,40=1/2;
 3/5=16,6=2,7=10,11=9,16=1,25=1,30=1,71=1/1,2,3;
 4//1;
 5/5=2,38=5/2;
 6/7=2,8=2,9=2,10=2,28=1/1;
 7//1,2,3,16;
 1/18=20,19=15/3(2);
 2/9=110/2;
 99//99;
 2/9=110/2;
 3/5=16,6=2,7=10,11=9,16=1,25=1,30=1,71=1/1,2,3;
 4/5=5,16=3/1;
 5/5=2,38=5/2;
 7//1,2,3,16;
 1/18=20,19=15/3(-5);
 2/9=110/2;
 6/7=2,8=2,9=2,10=2,19=2,28=1/1;
 99/9=1/99;
 ----------------------
 hydrogen fluoride (HF)
 ----------------------
 Symbolic Z-matrix:
 Charge =  0 Multiplicity = 1
 H
 F                    1    r
       Variables:
  r                     1.                       
 

 GradGradGradGradGradGradGradGradGradGradGradGradGradGradGradGradGradGrad
 Berny optimization.
 Initialization pass.
                           ----------------------------
                           !    Initial Parameters    !
                           ! (Angstroms and Degrees)  !
 --------------------------                            --------------------------
 ! Name  Definition              Value          Derivative Info.                !
 --------------------------------------------------------------------------------
 ! R1    R(1,2)                  1.0            estimate D2E/DX2                !
 --------------------------------------------------------------------------------
 Trust Radius=3.00D-01 FncErr=1.00D-07 GrdErr=1.00D-07
 Number of steps in this run=     20 maximum allowed number of steps=    100.
 GradGradGradGradGradGradGradGradGradGradGradGradGradGradGradGradGradGrad

                          Input orientation:                          
 ---------------------------------------------------------------------
 Center     Atomic      Atomic             Coordinates (Angstroms)
 Number     Number       Type             X           Y           Z
 ---------------------------------------------------------------------
      1          1           0        0.000000    0.000000    0.000000
      2          9           0        0.000000    0.000000    1.000000
 ---------------------------------------------------------------------
 Stoichiometry    FH
 Framework group  C*V[C*(HF)]
 Deg. of freedom     1
 Full point group                 C*V     NOp   4
 Largest Abelian subgroup         C2V     NOp   4
 Largest concise Abelian subgroup C1      NOp   1
                         Standard orientation:                         
 ---------------------------------------------------------------------
 Center     Atomic      Atomic             Coordinates (Angstroms)
 Number     Number       Type             X           Y           Z
 ---------------------------------------------------------------------
      1          1           0        0.000000    0.000000   -0.900000
      2          9           0        0.000000    0.000000    0.100000
 ---------------------------------------------------------------------
 Rotational constants (GHZ):      0.0000000    528.0562308    528.0562308
 Standard basis: Aug-CC-pVQZ (5D, 7F)
 There are    50 symmetry adapted basis functions of A1  symmetry.
 There are    16 symmetry adapted basis functions of A2  symmetry.
 There are    30 symmetry adapted basis functions of B1  symmetry.
 There are    30 symmetry adapted basis functions of B2  symmetry.
 Integral buffers will be    262144 words long.
 Raffenetti 1 integral format.
 Two-electron integral symmetry is turned on.
   126 basis functions,   181 primitive gaussians,   160 cartesian basis functions
     5 alpha electrons        5 beta electrons
       nuclear repulsion energy         4.7625948773 Hartrees.
 NAtoms=    2 NActive=    2 NUniq=    2 SFac= 1.00D+00 NAtFMM=   50 NAOKFM=F Big=F
 One-electron integrals computed using PRISM.
 NBasis=   126 RedAO= T  NBF=    50    16    30    30
 NBsUse=   126 1.00D-06 NBFU=    50    16    30    30
 Harris functional with IExCor=  205 diagonalized for initial guess.
 ExpMin= 2.36D-02 ExpMax= 7.45D+04 ExpMxC= 2.54D+03 IAcc=3 IRadAn=         0 AccDes= 0.00D+00
 HarFok:  IExCor=  205 AccDes= 0.00D+00 IRadAn=         0 IDoV= 1
 ScaDFX=  1.000000  1.000000  1.000000  1.000000
 FoFCou: FMM=F IPFlag=           0 FMFlag=      100000 FMFlg1=           0
         NFxFlg=           0 DoJE=T BraDBF=F KetDBF=T FulRan=T
         Omega=  0.000000  0.000000  1.000000  0.000000  0.000000 ICntrl=     500 IOpCl=  0
         NMat0=    1 NMatS0=    1 NMatT0=    0 NMatD0=    1 NMtDS0=    0 NMtDT0=    0
         I1Cent=           4 NGrid=           0.
 Petite list used in FoFCou.
 Initial guess orbital symmetries:
       Occupied  (SG) (SG) (SG) (PI) (PI)
       Virtual   (SG) (SG) (SG) (PI) (PI) (PI) (PI) (SG) (SG) (SG)
                 (DLTA) (DLTA) (PI) (PI) (SG) (SG) (PI) (PI) (PI)
                 (PI) (DLTA) (DLTA) (SG) (PI) (PI) (SG) (SG) (PHI)
                 (PHI) (DLTA) (DLTA) (SG) (PI) (PI) (PI) (PI) (DLTA)
                 (DLTA) (SG) (PHI) (PHI) (DLTA) (DLTA) (SG) (PI)
                 (PI) (SG) (PI) (PI) (SG) (DLTA) (DLTA) (PI) (PI)
                 (SG) (PI) (PI) (SG) (?A) (?A) (PHI) (PHI) (SG)
                 (DLTA) (DLTA) (PI) (PI) (PHI) (PHI) (DLTA) (DLTA)
                 (SG) (PI) (PI) (DLTA) (DLTA) (SG) (PI) (PI) (SG)
                 (PHI) (PHI) (SG) (DLTA) (DLTA) (PI) (PI) (SG)
                 (DLTA) (DLTA) (PI) (PI) (SG) (PI) (PI) (SG) (PI)
                 (PI) (?A) (?A) (PHI) (PHI) (DLTA) (DLTA) (PI)
                 (PI) (SG) (SG) (PHI) (PHI) (DLTA) (DLTA) (PI)
                 (PI) (DLTA) (DLTA) (SG) (PI) (PI) (SG) (SG)
 The electronic state of the initial guess is 1-SG.
 Requested convergence on RMS density matrix=1.00D-08 within 128 cycles.
 Requested convergence on MAX density matrix=1.00D-06.
 Requested convergence on             energy=1.00D-06.
 No special actions if energy rises.
 Initial convergence to 1.0D-05 achieved.  Increase integral accuracy.
 SCF Done:  E(RHF) =  -100.058260676     A.U. after   10 cycles
             Convg  =    0.7627D-08             -V/T =  2.0019

 **********************************************************************

            Population analysis using the SCF density.

 **********************************************************************

 Orbital symmetries:
       Occupied  (SG) (SG) (SG) (PI) (PI)
       Virtual   (SG) (SG) (SG) (PI) (PI) (PI) (PI) (SG) (SG) (SG)
                 (DLTA) (DLTA) (PI) (PI) (SG) (SG) (DLTA) (DLTA)
                 (PI) (PI) (PI) (PI) (SG) (PI) (PI) (SG) (SG) (PHI)
                 (PHI) (SG) (DLTA) (DLTA) (PI) (PI) (DLTA) (DLTA)
                 (PI) (PI) (PHI) (PHI) (SG) (DLTA) (DLTA) (SG)
                 (PI) (PI) (SG) (PI) (PI) (DLTA) (DLTA) (SG) (PI)
                 (PI) (SG) (PI) (PI) (SG) (?A) (?A) (PHI) (PHI)
                 (DLTA) (DLTA) (SG) (PI) (PI) (PHI) (PHI) (DLTA)
                 (DLTA) (SG) (PI) (PI) (DLTA) (DLTA) (SG) (PI)
                 (PI) (SG) (PHI) (PHI) (DLTA) (DLTA) (SG) (PI)
                 (PI) (SG) (DLTA) (DLTA) (PI) (PI) (SG) (PI) (PI)
                 (SG) (?A) (?A) (PHI) (PHI) (PI) (PI) (DLTA) (DLTA)
                 (PI) (PI) (SG) (SG) (PHI) (PHI) (DLTA) (DLTA)
                 (PI) (PI) (DLTA) (DLTA) (SG) (PI) (PI) (SG) (SG)
 The electronic state is 1-SG.
 Alpha  occ. eigenvalues --  -26.29667  -1.57507  -0.73619  -0.64233  -0.64233
 Alpha virt. eigenvalues --    0.02589   0.11298   0.17096   0.17229   0.17229
 Alpha virt. eigenvalues --    0.22265   0.22265   0.24474   0.35276   0.54583
 Alpha virt. eigenvalues --    0.57759   0.57759   0.59769   0.59769   0.66789
 Alpha virt. eigenvalues --    0.76244   0.77480   0.77480   0.77752   0.77752
 Alpha virt. eigenvalues --    0.85505   0.85505   0.95471   1.22579   1.22579
 Alpha virt. eigenvalues --    1.40634   1.51338   1.51795   1.51795   1.68710
 Alpha virt. eigenvalues --    1.70886   1.70886   1.79254   1.79254   2.03981
 Alpha virt. eigenvalues --    2.03981   2.06838   2.06838   2.08240   2.08240
 Alpha virt. eigenvalues --    2.09636   2.16022   2.16022   2.24743   2.49282
 Alpha virt. eigenvalues --    2.49282   2.76062   2.92474   2.92474   3.08262
 Alpha virt. eigenvalues --    3.08262   3.09276   3.10226   3.10226   3.81923
 Alpha virt. eigenvalues --    4.48993   4.48993   4.61277   4.74414   4.74414
 Alpha virt. eigenvalues --    4.87630   4.87630   5.24242   5.24242   5.28781
 Alpha virt. eigenvalues --    5.43755   5.43755   5.57379   5.57379   5.66670
 Alpha virt. eigenvalues --    5.66670   5.75976   5.84171   5.84171   6.02843
 Alpha virt. eigenvalues --    6.02843   6.26460   6.53015   6.53015   6.63216
 Alpha virt. eigenvalues --    6.68644   6.68644   7.80837   7.80837   7.83549
 Alpha virt. eigenvalues --    7.84315   7.84315   8.46264   8.56075   8.56075
 Alpha virt. eigenvalues --    8.76847   8.76847  10.30768  10.34327  10.34327
 Alpha virt. eigenvalues --   12.31834  13.68361  13.68361  13.76356  13.76356
 Alpha virt. eigenvalues --   13.90397  13.90397  13.97832  13.97832  14.36462
 Alpha virt. eigenvalues --   14.36462  14.52988  15.04510  15.89521  15.89521
 Alpha virt. eigenvalues --   16.05238  16.05238  16.55317  16.55317  16.85384
 Alpha virt. eigenvalues --   16.85384  17.05357  17.44144  17.44144  19.46481
 Alpha virt. eigenvalues --   56.03594
          Condensed to atoms (all electrons):
              1          2
     1  H    0.325231   0.219861
     2  F    0.219861   9.235047
 Mulliken atomic charges:
              1
     1  H    0.454908
     2  F   -0.454908
 Sum of Mulliken atomic charges =   0.00000
 Mulliken charges with hydrogens summed into heavy atoms:
              1
     2  F    0.000000
 Sum of Mulliken charges with hydrogens summed into heavy atoms =   0.00000
 Electronic spatial extent (au):  <R**2>=             14.2259
 Charge=              0.0000 electrons
 Dipole moment (field-independent basis, Debye):
    X=              0.0000    Y=              0.0000    Z=             -2.0874  Tot=              2.0874
 Quadrupole moment (field-independent basis, Debye-Ang):
   XX=             -5.7731   YY=             -5.7731   ZZ=             -3.2652
   XY=              0.0000   XZ=              0.0000   YZ=              0.0000
 Traceless Quadrupole moment (field-independent basis, Debye-Ang):
   XX=             -0.8360   YY=             -0.8360   ZZ=              1.6719
   XY=              0.0000   XZ=              0.0000   YZ=              0.0000
 Octapole moment (field-independent basis, Debye-Ang**2):
  XXX=              0.0000  YYY=              0.0000  ZZZ=             -2.3762  XYY=              0.0000
  XXY=              0.0000  XXZ=             -0.1165  XZZ=              0.0000  YZZ=              0.0000
  YYZ=             -0.1165  XYZ=              0.0000
 Hexadecapole moment (field-independent basis, Debye-Ang**3):
 XXXX=             -3.8882 YYYY=             -3.8882 ZZZZ=             -3.1151 XXXY=              0.0000
 XXXZ=              0.0000 YYYX=              0.0000 YYYZ=              0.0000 ZZZX=              0.0000
 ZZZY=              0.0000 XXYY=             -1.2961 XXZZ=             -1.5326 YYZZ=             -1.5326
 XXYZ=              0.0000 YYXZ=              0.0000 ZZXY=              0.0000
 N-N= 4.762594877310D+00 E-N=-2.497213845753D+02  KE= 9.986487613969D+01
 Symmetry A1   KE= 8.730668207407D+01
 Symmetry A2   KE=-5.606241994262D-52
 Symmetry B1   KE= 6.279097032811D+00
 Symmetry B2   KE= 6.279097032811D+00
 Calling FoFJK, ICntrl=      2127 FMM=F ISym2X=1 I1Cent= 0 IOpClX= 0 NMat=1 NMatS=1 NMatT=0.
 ***** Axes restored to original set *****
 -------------------------------------------------------------------
 Center     Atomic                   Forces (Hartrees/Bohr)
 Number     Number              X              Y              Z
 -------------------------------------------------------------------
      1        1           0.000000000    0.000000000    0.098539576
      2        9           0.000000000    0.000000000   -0.098539576
 -------------------------------------------------------------------
 Cartesian Forces:  Max     0.098539576 RMS     0.056891851

 GradGradGradGradGradGradGradGradGradGradGradGradGradGradGradGradGradGrad
 Berny optimization.
 Internal  Forces:  Max     0.098539576 RMS     0.098539576
 Search for a local minimum.
 Step number   1 out of a maximum of   20
 All quantities printed in internal units (Hartrees-Bohrs-Radians)
 Mixed Optimization -- RFO/linear search
 Second derivative matrix not updated -- first step.
 The second derivative matrix:
                          R1
           R1           0.47688
 ITU=  0
     Eigenvalues ---    0.47688
 RFO step:  Lambda=-1.95592582D-02 EMin= 4.76883293D-01
 Linear search not attempted -- first point.
 Iteration  1 RMS(Cart)=  0.14035461 RMS(Int)=  0.00000000
 Iteration  2 RMS(Cart)=  0.00000000 RMS(Int)=  0.00000000
 ClnCor:  largest displacement from symmetrization is 1.11D-16 for atom     1.
 Variable       Old X    -DE/DX   Delta X   Delta X   Delta X     New X
                                 (Linear)    (Quad)   (Total)
    R1        1.88973  -0.09854   0.00000  -0.19849  -0.19849   1.69123
         Item               Value     Threshold  Converged?
 Maximum Force            0.098540     0.000450     NO 
 RMS     Force            0.098540     0.000300     NO 
 Maximum Displacement     0.099246     0.001800     NO 
 RMS     Displacement     0.140355     0.001200     NO 
 Predicted change in Energy=-1.016494D-02
 GradGradGradGradGradGradGradGradGradGradGradGradGradGradGradGradGradGrad

                          Input orientation:                          
 ---------------------------------------------------------------------
 Center     Atomic      Atomic             Coordinates (Angstroms)
 Number     Number       Type             X           Y           Z
 ---------------------------------------------------------------------
      1          1           0        0.000000    0.000000    0.052519
      2          9           0        0.000000    0.000000    0.947481
 ---------------------------------------------------------------------
 Stoichiometry    FH
 Framework group  C*V[C*(HF)]
 Deg. of freedom     1
 Full point group                 C*V     NOp   4
 Largest Abelian subgroup         C2V     NOp   4
 Largest concise Abelian subgroup C1      NOp   1
                         Standard orientation:                         
 ---------------------------------------------------------------------
 Center     Atomic      Atomic             Coordinates (Angstroms)
 Number     Number       Type             X           Y           Z
 ---------------------------------------------------------------------
      1          1           0        0.000000    0.000000   -0.805467
      2          9           0        0.000000    0.000000    0.089496
 ---------------------------------------------------------------------
 Rotational constants (GHZ):      0.0000000    659.2803473    659.2803473
 Standard basis: Aug-CC-pVQZ (5D, 7F)
 There are    50 symmetry adapted basis functions of A1  symmetry.
 There are    16 symmetry adapted basis functions of A2  symmetry.
 There are    30 symmetry adapted basis functions of B1  symmetry.
 There are    30 symmetry adapted basis functions of B2  symmetry.
 Integral buffers will be    262144 words long.
 Raffenetti 1 integral format.
 Two-electron integral symmetry is turned on.
   126 basis functions,   181 primitive gaussians,   160 cartesian basis functions
     5 alpha electrons        5 beta electrons
       nuclear repulsion energy         5.3215557919 Hartrees.
 NAtoms=    2 NActive=    2 NUniq=    2 SFac= 1.00D+00 NAtFMM=   50 NAOKFM=F Big=F
 One-electron integrals computed using PRISM.
 NBasis=   126 RedAO= T  NBF=    50    16    30    30
 NBsUse=   126 1.00D-06 NBFU=    50    16    30    30
 Initial guess read from the read-write file.
 B after Tr=     0.000000    0.000000    0.000000
         Rot=    1.000000    0.000000    0.000000    0.000000 Ang=   0.00 deg.
 Initial guess orbital symmetries:
       Occupied  (SG) (SG) (SG) (PI) (PI)
       Virtual   (SG) (SG) (SG) (PI) (PI) (PI) (PI) (SG) (SG) (SG)
                 (DLTA) (DLTA) (PI) (PI) (SG) (SG) (DLTA) (DLTA)
                 (PI) (PI) (PI) (PI) (SG) (PI) (PI) (SG) (SG) (PHI)
                 (PHI) (SG) (DLTA) (DLTA) (PI) (PI) (DLTA) (DLTA)
                 (PI) (PI) (PHI) (PHI) (SG) (DLTA) (DLTA) (SG)
                 (PI) (PI) (SG) (PI) (PI) (DLTA) (DLTA) (SG) (PI)
                 (PI) (SG) (PI) (PI) (SG) (?A) (?A) (PHI) (PHI)
                 (DLTA) (DLTA) (SG) (PI) (PI) (PHI) (PHI) (DLTA)
                 (DLTA) (SG) (PI) (PI) (DLTA) (DLTA) (SG) (PI)
                 (PI) (SG) (PHI) (PHI) (DLTA) (DLTA) (SG) (PI)
                 (PI) (SG) (DLTA) (DLTA) (PI) (PI) (SG) (PI) (PI)
                 (SG) (?A) (?A) (PHI) (PHI) (PI) (PI) (DLTA) (DLTA)
                 (PI) (PI) (SG) (SG) (PHI) (PHI) (DLTA) (DLTA)
                 (PI) (PI) (DLTA) (DLTA) (SG) (PI) (PI) (SG) (SG)
 Harris functional with IExCor=  205 diagonalized for initial guess.
 ExpMin= 2.36D-02 ExpMax= 7.45D+04 ExpMxC= 2.54D+03 IAcc=3 IRadAn=         0 AccDes= 0.00D+00
 HarFok:  IExCor=  205 AccDes= 0.00D+00 IRadAn=         0 IDoV= 1
 ScaDFX=  1.000000  1.000000  1.000000  1.000000
 FoFCou: FMM=F IPFlag=           0 FMFlag=      100000 FMFlg1=           0
         NFxFlg=           0 DoJE=T BraDBF=F KetDBF=T FulRan=T
         Omega=  0.000000  0.000000  1.000000  0.000000  0.000000 ICntrl=     500 IOpCl=  0
         NMat0=    1 NMatS0=    1 NMatT0=    0 NMatD0=    1 NMtDS0=    0 NMtDT0=    0
         I1Cent=           4 NGrid=           0.
 Petite list used in FoFCou.
 Requested convergence on RMS density matrix=1.00D-08 within 128 cycles.
 Requested convergence on MAX density matrix=1.00D-06.
 Requested convergence on             energy=1.00D-06.
 No special actions if energy rises.
 Initial convergence to 1.0D-05 achieved.  Increase integral accuracy.
 SCF Done:  E(RHF) =  -100.069032514     A.U. after   10 cycles
             Convg  =    0.9743D-08             -V/T =  2.0000
 Calling FoFJK, ICntrl=      2127 FMM=F ISym2X=1 I1Cent= 0 IOpClX= 0 NMat=1 NMatS=1 NMatT=0.
 ***** Axes restored to original set *****
 -------------------------------------------------------------------
 Center     Atomic                   Forces (Hartrees/Bohr)
 Number     Number              X              Y              Z
 -------------------------------------------------------------------
      1        1           0.000000000    0.000000000   -0.003172765
      2        9           0.000000000    0.000000000    0.003172765
 -------------------------------------------------------------------
 Cartesian Forces:  Max     0.003172765 RMS     0.001831797

 GradGradGradGradGradGradGradGradGradGradGradGradGradGradGradGradGradGrad
 Berny optimization.
 Using GEDIIS/GDIIS optimizer.
 Internal  Forces:  Max     0.003172765 RMS     0.003172765
 Search for a local minimum.
 Step number   2 out of a maximum of   20
 All quantities printed in internal units (Hartrees-Bohrs-Radians)
 Mixed Optimization -- RFO/linear search
 Update second derivatives using D2CorX and points    1    2
 DE= -1.08D-02 DEPred=-1.02D-02 R= 1.06D+00
 SS=  1.41D+00  RLast= 1.98D-01 DXNew= 5.0454D-01 5.9547D-01
 Trust test= 1.06D+00 RLast= 1.98D-01 DXMaxT set to 5.05D-01
 The second derivative matrix:
                          R1
           R1           0.51243
 ITU=  1  0
 Use linear search instead of GDIIS.
     Eigenvalues ---    0.51243
 RFO step:  Lambda= 0.00000000D+00 EMin= 5.12426948D-01
 Quartic linear search produced a step of -0.02222.
 Iteration  1 RMS(Cart)=  0.00311918 RMS(Int)=  0.00000000
 Iteration  2 RMS(Cart)=  0.00000000 RMS(Int)=  0.00000000
 ClnCor:  largest displacement from symmetrization is 0.00D+00 for atom     0.
 Variable       Old X    -DE/DX   Delta X   Delta X   Delta X     New X
                                 (Linear)    (Quad)   (Total)
    R1        1.69123   0.00317   0.00441   0.00000   0.00441   1.69565
         Item               Value     Threshold  Converged?
 Maximum Force            0.003173     0.000450     NO 
 RMS     Force            0.003173     0.000300     NO 
 Maximum Displacement     0.002206     0.001800     NO 
 RMS     Displacement     0.003119     0.001200     NO 
 Predicted change in Energy=-9.010109D-06
 GradGradGradGradGradGradGradGradGradGradGradGradGradGradGradGradGradGrad

                          Input orientation:                          
 ---------------------------------------------------------------------
 Center     Atomic      Atomic             Coordinates (Angstroms)
 Number     Number       Type             X           Y           Z
 ---------------------------------------------------------------------
      1          1           0        0.000000    0.000000    0.051351
      2          9           0        0.000000    0.000000    0.948649
 ---------------------------------------------------------------------
 Stoichiometry    FH
 Framework group  C*V[C*(HF)]
 Deg. of freedom     1
 Full point group                 C*V     NOp   4
 Largest Abelian subgroup         C2V     NOp   4
 Largest concise Abelian subgroup C1      NOp   1
                         Standard orientation:                         
 ---------------------------------------------------------------------
 Center     Atomic      Atomic             Coordinates (Angstroms)
 Number     Number       Type             X           Y           Z
 ---------------------------------------------------------------------
      1          1           0        0.000000    0.000000   -0.807567
      2          9           0        0.000000    0.000000    0.089730
 ---------------------------------------------------------------------
 Rotational constants (GHZ):      0.0000000    655.8546044    655.8546044
 Standard basis: Aug-CC-pVQZ (5D, 7F)
 There are    50 symmetry adapted basis functions of A1  symmetry.
 There are    16 symmetry adapted basis functions of A2  symmetry.
 There are    30 symmetry adapted basis functions of B1  symmetry.
 There are    30 symmetry adapted basis functions of B2  symmetry.
 Integral buffers will be    262144 words long.
 Raffenetti 1 integral format.
 Two-electron integral symmetry is turned on.
   126 basis functions,   181 primitive gaussians,   160 cartesian basis functions
     5 alpha electrons        5 beta electrons
       nuclear repulsion energy         5.3077118896 Hartrees.
 NAtoms=    2 NActive=    2 NUniq=    2 SFac= 1.00D+00 NAtFMM=   50 NAOKFM=F Big=F
 One-electron integrals computed using PRISM.
 NBasis=   126 RedAO= T  NBF=    50    16    30    30
 NBsUse=   126 1.00D-06 NBFU=    50    16    30    30
 Initial guess read from the read-write file.
 B after Tr=     0.000000    0.000000    0.000000
         Rot=    1.000000    0.000000    0.000000    0.000000 Ang=   0.00 deg.
 Initial guess orbital symmetries:
       Occupied  (SG) (SG) (SG) (PI) (PI)
       Virtual   (SG) (SG) (PI) (PI) (SG) (PI) (PI) (SG) (SG) (DLTA)
                 (DLTA) (SG) (PI) (PI) (SG) (SG) (DLTA) (DLTA)
                 (PI) (PI) (PI) (PI) (SG) (PI) (PI) (SG) (PHI)
                 (PHI) (SG) (SG) (DLTA) (DLTA) (PI) (PI) (DLTA)
                 (DLTA) (PI) (PI) (PHI) (PHI) (SG) (DLTA) (DLTA)
                 (SG) (PI) (PI) (SG) (PI) (PI) (SG) (PI) (PI) (DLTA)
                 (DLTA) (SG) (PI) (PI) (SG) (?A) (?A) (PHI) (PHI)
                 (SG) (DLTA) (DLTA) (PI) (PI) (PHI) (PHI) (DLTA)
                 (DLTA) (SG) (PI) (PI) (DLTA) (DLTA) (SG) (PI)
                 (PI) (PHI) (PHI) (SG) (PI) (PI) (DLTA) (DLTA)
                 (SG) (DLTA) (DLTA) (SG) (PI) (PI) (SG) (PI) (PI)
                 (SG) (?A) (?A) (PHI) (PHI) (PI) (PI) (DLTA) (DLTA)
                 (SG) (PI) (PI) (SG) (PHI) (PHI) (DLTA) (DLTA)
                 (PI) (PI) (DLTA) (DLTA) (SG) (PI) (PI) (SG) (SG)
 Requested convergence on RMS density matrix=1.00D-08 within 128 cycles.
 Requested convergence on MAX density matrix=1.00D-06.
 Requested convergence on             energy=1.00D-06.
 No special actions if energy rises.
 SCF Done:  E(RHF) =  -100.069039385     A.U. after    7 cycles
             Convg  =    0.2377D-08             -V/T =  2.0001
 Calling FoFJK, ICntrl=      2127 FMM=F ISym2X=1 I1Cent= 0 IOpClX= 0 NMat=1 NMatS=1 NMatT=0.
 ***** Axes restored to original set *****
 -------------------------------------------------------------------
 Center     Atomic                   Forces (Hartrees/Bohr)
 Number     Number              X              Y              Z
 -------------------------------------------------------------------
      1        1           0.000000000    0.000000000    0.000048161
      2        9           0.000000000    0.000000000   -0.000048161
 -------------------------------------------------------------------
 Cartesian Forces:  Max     0.000048161 RMS     0.000027806

 GradGradGradGradGradGradGradGradGradGradGradGradGradGradGradGradGradGrad
 Berny optimization.
 Using GEDIIS/GDIIS optimizer.
 Internal  Forces:  Max     0.000048161 RMS     0.000048161
 Search for a local minimum.
 Step number   3 out of a maximum of   20
 All quantities printed in internal units (Hartrees-Bohrs-Radians)
 Mixed Optimization -- En-DIIS/RFO-DIIS
 Update second derivatives using D2CorX and points    2    3
 DE= -6.87D-06 DEPred=-9.01D-06 R= 7.63D-01
 SS=  1.41D+00  RLast= 4.41D-03 DXNew= 8.4853D-01 1.3234D-02
 Trust test= 7.63D-01 RLast= 4.41D-03 DXMaxT set to 5.05D-01
 The second derivative matrix:
                          R1
           R1           0.73017
 ITU=  1  1
 Use linear search instead of GDIIS.
     Eigenvalues ---    0.73017
 RFO step:  Lambda= 0.00000000D+00 EMin= 7.30172773D-01
 Quartic linear search produced a step of -0.01508.
 Iteration  1 RMS(Cart)=  0.00004703 RMS(Int)=  0.00000000
 Iteration  2 RMS(Cart)=  0.00000000 RMS(Int)=  0.00000000
 ClnCor:  largest displacement from symmetrization is 0.00D+00 for atom     0.
 Variable       Old X    -DE/DX   Delta X   Delta X   Delta X     New X
                                 (Linear)    (Quad)   (Total)
    R1        1.69565  -0.00005  -0.00007   0.00000  -0.00007   1.69558
         Item               Value     Threshold  Converged?
 Maximum Force            0.000048     0.000450     YES
 RMS     Force            0.000048     0.000300     YES
 Maximum Displacement     0.000033     0.001800     YES
 RMS     Displacement     0.000047     0.001200     YES
 Predicted change in Energy=-1.588172D-09
 Optimization completed.
    -- Stationary point found.
                           ----------------------------
                           !   Optimized Parameters   !
                           ! (Angstroms and Degrees)  !
 --------------------------                            --------------------------
 ! Name  Definition              Value          Derivative Info.                !
 --------------------------------------------------------------------------------
 ! R1    R(1,2)                  0.8973         -DE/DX =    0.0                 !
 --------------------------------------------------------------------------------
 GradGradGradGradGradGradGradGradGradGradGradGradGradGradGradGradGradGrad

                          Input orientation:                          
 ---------------------------------------------------------------------
 Center     Atomic      Atomic             Coordinates (Angstroms)
 Number     Number       Type             X           Y           Z
 ---------------------------------------------------------------------
      1          1           0        0.000000    0.000000    0.051351
      2          9           0        0.000000    0.000000    0.948649
 ---------------------------------------------------------------------
 Stoichiometry    FH
 Framework group  C*V[C*(HF)]
 Deg. of freedom     1
 Full point group                 C*V     NOp   4
 Largest Abelian subgroup         C2V     NOp   4
 Largest concise Abelian subgroup C1      NOp   1
                         Standard orientation:                         
 ---------------------------------------------------------------------
 Center     Atomic      Atomic             Coordinates (Angstroms)
 Number     Number       Type             X           Y           Z
 ---------------------------------------------------------------------
      1          1           0        0.000000    0.000000   -0.807567
      2          9           0        0.000000    0.000000    0.089730
 ---------------------------------------------------------------------
 Rotational constants (GHZ):      0.0000000    655.8546044    655.8546044

 **********************************************************************

            Population analysis using the SCF density.

 **********************************************************************

 Orbital symmetries:
       Occupied  (SG) (SG) (SG) (PI) (PI)
       Virtual   (SG) (SG) (PI) (PI) (SG) (PI) (PI) (SG) (SG) (DLTA)
                 (DLTA) (SG) (PI) (PI) (SG) (SG) (DLTA) (DLTA)
                 (PI) (PI) (PI) (PI) (SG) (PI) (PI) (SG) (PHI)
                 (PHI) (SG) (SG) (DLTA) (DLTA) (PI) (PI) (DLTA)
                 (DLTA) (PI) (PI) (PHI) (PHI) (SG) (DLTA) (DLTA)
                 (SG) (PI) (PI) (SG) (PI) (PI) (SG) (PI) (PI) (DLTA)
                 (DLTA) (SG) (PI) (PI) (SG) (?A) (?A) (PHI) (PHI)
                 (SG) (DLTA) (DLTA) (PI) (PI) (PHI) (PHI) (DLTA)
                 (DLTA) (SG) (PI) (PI) (DLTA) (DLTA) (SG) (PI)
                 (PI) (PHI) (PHI) (SG) (PI) (PI) (DLTA) (DLTA)
                 (SG) (DLTA) (DLTA) (SG) (PI) (PI) (SG) (PI) (PI)
                 (SG) (?A) (?A) (PHI) (PHI) (PI) (PI) (DLTA) (DLTA)
                 (SG) (PI) (PI) (SG) (PHI) (PHI) (DLTA) (DLTA)
                 (PI) (PI) (DLTA) (DLTA) (SG) (PI) (PI) (SG) (SG)
 The electronic state is 1-SG.
 Alpha  occ. eigenvalues --  -26.29534  -1.60870  -0.77626  -0.65248  -0.65248
 Alpha virt. eigenvalues --    0.02869   0.11541   0.17083   0.17083   0.18139
 Alpha virt. eigenvalues --    0.22426   0.22426   0.24341   0.36434   0.57935
 Alpha virt. eigenvalues --    0.57935   0.58044   0.59923   0.59923   0.67915
 Alpha virt. eigenvalues --    0.76318   0.76975   0.76975   0.77552   0.77552
 Alpha virt. eigenvalues --    0.85527   0.85527   0.93331   1.24865   1.24865
 Alpha virt. eigenvalues --    1.48554   1.52072   1.52072   1.55327   1.65004
 Alpha virt. eigenvalues --    1.71670   1.71670   1.78085   1.78085   2.01149
 Alpha virt. eigenvalues --    2.01149   2.08168   2.08168   2.10865   2.10865
 Alpha virt. eigenvalues --    2.12354   2.16607   2.16607   2.19180   2.50521
 Alpha virt. eigenvalues --    2.50521   2.85266   2.87244   2.87244   3.16214
 Alpha virt. eigenvalues --    3.22692   3.22692   3.24778   3.24778   3.82835
 Alpha virt. eigenvalues --    4.65839   4.65839   4.68693   4.73572   4.73572
 Alpha virt. eigenvalues --    4.90528   4.90528   5.27144   5.33731   5.33731
 Alpha virt. eigenvalues --    5.45512   5.45512   5.57830   5.57830   5.62601
 Alpha virt. eigenvalues --    5.62601   5.75378   5.91269   5.91269   6.09733
 Alpha virt. eigenvalues --    6.09733   6.20111   6.47782   6.47782   6.81695
 Alpha virt. eigenvalues --    6.81695   6.90089   7.91258   7.91258   8.02581
 Alpha virt. eigenvalues --    8.02581   8.10851   8.84452   8.84452   8.87371
 Alpha virt. eigenvalues --    8.89765   8.89765  10.84503  11.04553  11.04553
 Alpha virt. eigenvalues --   12.33633  13.67421  13.67421  13.77342  13.77342
 Alpha virt. eigenvalues --   13.97724  13.97724  14.06176  14.06176  14.60666
 Alpha virt. eigenvalues --   14.60867  14.60867  15.29468  15.90212  15.90212
 Alpha virt. eigenvalues --   16.04834  16.04834  16.49208  16.49208  16.90719
 Alpha virt. eigenvalues --   16.90719  17.49011  18.15998  18.15998  20.45782
 Alpha virt. eigenvalues --   56.75926
          Condensed to atoms (all electrons):
              1          2
     1  H    0.347268   0.237673
     2  F    0.237673   9.177387
 Mulliken atomic charges:
              1
     1  H    0.415059
     2  F   -0.415059
 Sum of Mulliken atomic charges =   0.00000
 Mulliken charges with hydrogens summed into heavy atoms:
              1
     2  F    0.000000
 Sum of Mulliken charges with hydrogens summed into heavy atoms =   0.00000
 Electronic spatial extent (au):  <R**2>=             13.6857
 Charge=              0.0000 electrons
 Dipole moment (field-independent basis, Debye):
    X=              0.0000    Y=              0.0000    Z=             -1.8842  Tot=              1.8842
 Quadrupole moment (field-independent basis, Debye-Ang):
   XX=             -5.6693   YY=             -5.6693   ZZ=             -3.5886
   XY=              0.0000   XZ=              0.0000   YZ=              0.0000
 Traceless Quadrupole moment (field-independent basis, Debye-Ang):
   XX=             -0.6936   YY=             -0.6936   ZZ=              1.3871
   XY=              0.0000   XZ=              0.0000   YZ=              0.0000
 Octapole moment (field-independent basis, Debye-Ang**2):
  XXX=              0.0000  YYY=              0.0000  ZZZ=             -1.8621  XYY=              0.0000
  XXY=              0.0000  XXZ=             -0.1441  XZZ=              0.0000  YZZ=              0.0000
  YYZ=             -0.1441  XYZ=              0.0000
 Hexadecapole moment (field-independent basis, Debye-Ang**3):
 XXXX=             -3.7528 YYYY=             -3.7528 ZZZZ=             -3.1910 XXXY=              0.0000
 XXXZ=              0.0000 YYYX=              0.0000 YYYZ=              0.0000 ZZZX=              0.0000
 ZZZY=              0.0000 XXYY=             -1.2509 XXZZ=             -1.3959 YYZZ=             -1.3959
 XXYZ=              0.0000 YYXZ=              0.0000 ZZXY=              0.0000
 N-N= 5.307711889627D+00 E-N=-2.508446117928D+02  KE= 1.000616450754D+02
 Symmetry A1   KE= 8.750867565115D+01
 Symmetry A2   KE= 9.867682976380D-52
 Symmetry B1   KE= 6.276484712150D+00
 Symmetry B2   KE= 6.276484712150D+00
 B after Tr=     0.000000    0.000000    1.700754
         Rot=    1.000000    0.000000    0.000000    0.000000 Ang=   0.00 deg.
 Final structure in terms of initial Z-matrix:
 H
 F,1,r
      Variables:
 r=0.89729717
 1|1|UNPC-PC105322|FOpt|RHF|Aug-CC-pVQZ|F1H1|CHAPMANNAT|17-Apr-2023|0||
 # opt HF/aug-cc-pVQZ||hydrogen fluoride (HF)||0,1|H,0.,0.,0.0513514132
 |F,0.,0.,0.9486485868||Version=IA32W-G09RevB.01|State=1-SG|HF=-100.069
 0394|RMSD=2.377e-009|RMSF=2.781e-005|Dipole=0.,0.,-0.741304|Quadrupole
 =-0.5156464,-0.5156464,1.0312927,0.,0.,0.|PG=C*V [C*(H1F1)]||@


 IT WAS A GAME, A VERY INTERESTING GAME ONE COULD
 PLAY.  WHENEVER ONE SOLVED ONE OF THE LITTLE PROBLEMS,
 ONE COULD WRITE A PAPER ABOUT IT.  IT WAS VERY EASY IN
 THOSE DAYS FOR ANY SECOND-RATE PHYSICIST TO DO
 FIRST-RATE WORK.  THERE HAS NOT BEEN SUCH A GLORIOUS
 TIME SINCE.  IT IS VERY DIFFICULT NOW FOR A FIRST-RATE
 PHYSICIST TO DO SECOND-RATE WORK.
     P.A.M. DIRAC, ON THE EARLY DAYS OF QUANTUM MECHANICS
                   DIRECTIONS IN PHYSICS, 1978, P. 7
 Job cpu time:  0 days  0 hours  1 minutes 58.0 seconds.
 File lengths (MBytes):  RWF=     14 Int=      0 D2E=      0 Chk=      2 Scr=      1
 Normal termination of Gaussian 09 at Mon Apr 17 11:46:33 2023.
